                         Program Version 6.0.0  -   RELEASE  -
|  1> ! r2scan-3c def2/J RI DEFGRID2 scfconv6 printgap
|  2> %output
|  3>     printlevel normal
|  4> end
|  5> * xyz 0 1
|  6> C -3.6619675287 -0.4189344364 0.3870458353
|  7> C -2.3730854572 0.2137018385 -0.1214386761
|  8> C -1.1515538756 -0.6064278728 0.2838679419
|  9> C 0.1313485613 -0.0243104783 -0.2481827115
| 10> O 0.2131444849 0.9228125002 -1.0007362652
| 11> O 1.1858821908 -0.6982755064 0.2030347633
| 12> C 2.4962585498 -0.2713996822 -0.206743855
| 13> C 3.0235149351 0.8330549781 0.6964370923
| 14> H -3.7844560739 -1.4177267553 -0.0243389182
| 15> H -3.6488271577 -0.4915124121 1.4716392521
| 16> H -4.5178821935 0.1817863288 0.0924644234
| 17> H -2.2715732106 1.2252768422 0.2758874734
| 18> H -2.399748565 0.2963005733 -1.2095015418
| 19> H -1.2311860626 -1.6268611891 -0.0974029905
| 20> H -1.0664167617 -0.6729684854 1.3698089443
| 21> H 3.1105933058 -1.1694195743 -0.1363194899
| 22> H 2.4423919936 0.073040775 -1.2439828389
| 23> H 3.0198219397 0.5035545967 1.7318808332
| 24> H 4.0375954151 1.0839050561 0.4029949205
| 25> H 2.399697014 1.7193053914 0.6035174604
| 26> *
| 27>
| 28>                          ****END OF INPUT****

CARTESIAN COORDINATES (ANGSTROEM)
---------------------------------
  C     -3.661968   -0.418934    0.387046
  C     -2.373085    0.213702   -0.121439
  C     -1.151554   -0.606428    0.283868
  C      0.131349   -0.024310   -0.248183
  O      0.213144    0.922813   -1.000736
  O      1.185882   -0.698276    0.203035
  C      2.496259   -0.271400   -0.206744
  C      3.023515    0.833055    0.696437
  H     -3.784456   -1.417727   -0.024339
  H     -3.648827   -0.491512    1.471639
  H     -4.517882    0.181786    0.092464
  H     -2.271573    1.225277    0.275887
  H     -2.399749    0.296301   -1.209502
  H     -1.231186   -1.626861   -0.097403
  H     -1.066417   -0.672968    1.369809
  H      3.110593   -1.169420   -0.136319
  H      2.442392    0.073041   -1.243983
  H      3.019822    0.503555    1.731881
  H      4.037595    1.083905    0.402995
  H      2.399697    1.719305    0.603517

 Total Charge           Charge          ....    0
 Multiplicity           Mult            ....    1
 Number of Electrons    NEL             ....   64
 Basis Dimension        Dim             ....  222

ORBITAL ENERGIES
----------------

  NO   OCC          E(Eh)            E(eV)
   0   2.0000     -18.994076      -516.8551
   1   2.0000     -18.929033      -515.0852
   2   2.0000     -10.151791      -276.2443
   3   2.0000     -10.090220      -274.5688
   4   2.0000     -10.041840      -273.2524
   5   2.0000     -10.028327      -272.8847
   6   2.0000     -10.027842      -272.8715
   7   2.0000     -10.019255      -272.6378
   8   2.0000      -1.069456       -29.1014
   9   2.0000      -0.975776       -26.5522
  10   2.0000      -0.770850       -20.9759
  11   2.0000      -0.739278       -20.1168
  12   2.0000      -0.680211       -18.5095
  13   2.0000      -0.621717       -16.9178
  14   2.0000      -0.562002       -15.2929
  15   2.0000      -0.517810       -14.0903
  16   2.0000      -0.473759       -12.8917
  17   2.0000      -0.457618       -12.4524
  18   2.0000      -0.443711       -12.0740
  19   2.0000      -0.418492       -11.3878
  20   2.0000      -0.411546       -11.1987
  21   2.0000      -0.387181       -10.5357
  22   2.0000      -0.376640       -10.2489
  23   2.0000      -0.364665        -9.9230
  24   2.0000      -0.351018        -9.5517
  25   2.0000      -0.336756        -9.1636
  26   2.0000      -0.321426        -8.7465
  27   2.0000      -0.312428        -8.5016
  28   2.0000      -0.304844        -8.2952
  29   2.0000      -0.302627        -8.2349
  30   2.0000      -0.270062        -7.3488
  31   2.0000      -0.236643        -6.4394
  32   0.0000      -0.012309        -0.3350
  33   0.0000       0.077229         2.1015
  34   0.0000       0.089820         2.4441
  35   0.0000       0.104271         2.8374
  36   0.0000       0.123435         3.3588

MULLIKEN ATOMIC CHARGES
-----------------------
   0 C :   -0.466244
   1 C :   -0.230477
   2 C :   -0.301638
   3 C :    0.376881
   4 O :   -0.431020
   5 O :   -0.177238
   6 C :   -0.137994
   7 C :   -0.470016
   8 H :    0.140968
   9 H :    0.139588
  10 H :    0.150440
  11 H :    0.145953
  12 H :    0.153215
  13 H :    0.161651
  14 H :    0.160880
  15 H :    0.147925
  16 H :    0.166409
  17 H :    0.151373
  18 H :    0.146501
  19 H :    0.172844
Sum of atomic charges:    0.0000000

LOEWDIN ATOMIC CHARGES
----------------------
   0 C :   -0.422177
   1 C :   -0.297118
   2 C :   -0.232322
   3 C :    0.364436
   4 O :   -0.436394
   5 O :   -0.596827
   6 C :    0.026430
   7 C :   -0.391135
   8 H :    0.149640
   9 H :    0.149511
  10 H :    0.152590
  11 H :    0.160559
  12 H :    0.163844
  13 H :    0.182109
  14 H :    0.181062
  15 H :    0.177419
  16 H :    0.187388
  17 H :    0.156778
  18 H :    0.158950
  19 H :    0.165256

  Mayer bond orders larger than 0.100000
B(  0-C ,  1-C ) :   0.8767 B(  0-C ,  8-H ) :   0.9847 B(  0-C ,  9-H ) :   0.9811
B(  0-C , 10-H ) :   0.9761 B(  1-C ,  2-C ) :   0.9676 B(  1-C , 11-H ) :   0.9627
B(  1-C , 12-H ) :   0.9648 B(  2-C ,  3-C ) :   1.0033 B(  2-C , 13-H ) :   0.9435
B(  2-C , 14-H ) :   0.9486 B(  3-C ,  4-O ) :   1.8384 B(  3-C ,  5-O ) :   1.0731
B(  5-O ,  6-C ) :   0.8168 B(  6-C ,  7-C ) :   0.9366 B(  6-C , 15-H ) :   0.9620
B(  6-C , 16-H ) :   0.9688 B(  7-C , 17-H ) :   0.9739 B(  7-C , 18-H ) :   0.9649
B(  7-C , 19-H ) :   0.9720

Dispersion correction           -0.004902187
FINAL SINGLE POINT ENERGY      -386.236962718992

DIPOLE MOMENT
-------------

Method             : SCF
Type of density    : Electron Density
Multiplicity       :   1
Irrep              :   0
Energy             :  -386.2437581774759110 Eh
Relativity type    :
Basis              : AO
                                X                 Y                 Z
Electronic contribution:      3.892182223      -0.202372461      -2.580209936
Nuclear contribution   :     -3.647477744      -0.273728841       3.024686476
                        -----------------------------------------
Total Dipole Moment    :      0.244704479      -0.476101302       0.444476540
                        -----------------------------------------
Magnitude (a.u.)       :      0.695781665
Magnitude (Debye)      :      1.768536446

Rotational constants in cm-1:             0.200389             0.028360             0.027120
Rotational constants in MHz :          6007.498016           850.214663           813.047380

                             ****ORCA TERMINATED NORMALLY****
TOTAL RUN TIME: 0 days 0 hours 0 minutes 32 seconds 604 msec
