                         Program Version 6.0.0  -   RELEASE  -
|  1> ! r2scan-3c def2/J RI DEFGRID2 scfconv6 printgap
|  2> %output
|  3>     printlevel normal
|  4> end
|  5> %cpcm
|  6>     smd true
|  7>     smdsolvent "water"
|  8> end
|  9> * xyz 0 1
| 10> C -3.6619675287 -0.4189344364 0.3870458353
| 11> C -2.3730854572 0.2137018385 -0.1214386761
| 12> C -1.1515538756 -0.6064278728 0.2838679419
| 13> C 0.1313485613 -0.0243104783 -0.2481827115
| 14> O 0.2131444849 0.9228125002 -1.0007362652
| 15> O 1.1858821908 -0.6982755064 0.2030347633
| 16> C 2.4962585498 -0.2713996822 -0.206743855
| 17> C 3.0235149351 0.8330549781 0.6964370923
| 18> H -3.7844560739 -1.4177267553 -0.0243389182
| 19> H -3.6488271577 -0.4915124121 1.4716392521
| 20> H -4.5178821935 0.1817863288 0.0924644234
| 21> H -2.2715732106 1.2252768422 0.2758874734
| 22> H -2.399748565 0.2963005733 -1.2095015418
| 23> H -1.2311860626 -1.6268611891 -0.0974029905
| 24> H -1.0664167617 -0.6729684854 1.3698089443
| 25> H 3.1105933058 -1.1694195743 -0.1363194899
| 26> H 2.4423919936 0.073040775 -1.2439828389
| 27> H 3.0198219397 0.5035545967 1.7318808332
| 28> H 4.0375954151 1.0839050561 0.4029949205
| 29> H 2.399697014 1.7193053914 0.6035174604
| 30> *
| 31>
| 32>                          ****END OF INPUT****

CARTESIAN COORDINATES (ANGSTROEM)
---------------------------------
  C     -3.661968   -0.418934    0.387046
  C     -2.373085    0.213702   -0.121439
  C     -1.151554   -0.606428    0.283868
  C      0.131349   -0.024310   -0.248183
  O      0.213144    0.922813   -1.000736
  O      1.185882   -0.698276    0.203035
  C      2.496259   -0.271400   -0.206744
  C      3.023515    0.833055    0.696437
  H     -3.784456   -1.417727   -0.024339
  H     -3.648827   -0.491512    1.471639
  H     -4.517882    0.181786    0.092464
  H     -2.271573    1.225277    0.275887
  H     -2.399749    0.296301   -1.209502
  H     -1.231186   -1.626861   -0.097403
  H     -1.066417   -0.672968    1.369809
  H      3.110593   -1.169420   -0.136319
  H      2.442392    0.073041   -1.243983
  H      3.019822    0.503555    1.731881
  H      4.037595    1.083905    0.402995
  H      2.399697    1.719305    0.603517

 Total Charge           Charge          ....    0
 Multiplicity           Mult            ....    1
 Number of Electrons    NEL             ....   64
 Basis Dimension        Dim             ....  222

ORBITAL ENERGIES
----------------

  NO   OCC          E(Eh)            E(eV)
   0   2.0000     -19.000052      -517.0177
   1   2.0000     -18.944327      -515.5013
   2   2.0000     -10.162158      -276.5264
   3   2.0000     -10.082850      -274.3683
   4   2.0000     -10.035395      -273.0770
   5   2.0000     -10.023816      -272.7619
   6   2.0000     -10.017902      -272.6010
   7   2.0000     -10.010527      -272.4003
   8   2.0000      -1.077112       -29.3097
   9   2.0000      -0.988912       -26.9097
  10   2.0000      -0.766532       -20.8584
  11   2.0000      -0.733122       -19.9493
  12   2.0000      -0.674338       -18.3497
  13   2.0000      -0.616810       -16.7843
  14   2.0000      -0.556352       -15.1391
  15   2.0000      -0.516672       -14.0594
  16   2.0000      -0.474160       -12.9025
  17   2.0000      -0.459182       -12.4950
  18   2.0000      -0.450624       -12.2621
  19   2.0000      -0.417072       -11.3491
  20   2.0000      -0.409260       -11.1365
  21   2.0000      -0.380832       -10.3630
  22   2.0000      -0.371895       -10.1198
  23   2.0000      -0.358403        -9.7526
  24   2.0000      -0.346223        -9.4212
  25   2.0000      -0.336878        -9.1669
  26   2.0000      -0.316835        -8.6215
  27   2.0000      -0.306701        -8.3458
  28   2.0000      -0.302668        -8.2360
  29   2.0000      -0.297738        -8.1019
  30   2.0000      -0.276054        -7.5118
  31   2.0000      -0.252370        -6.8673
  32   0.0000      -0.020206        -0.5498
  33   0.0000       0.080230         2.1832
  34   0.0000       0.095679         2.6036
  35   0.0000       0.113411         3.0861
  36   0.0000       0.132223         3.5980

MULLIKEN ATOMIC CHARGES
-----------------------
   0 C :   -0.515630
   1 C :   -0.249592
   2 C :   -0.304174
   3 C :    0.414128
   4 O :   -0.512308
   5 O :   -0.198441
   6 C :   -0.144078
   7 C :   -0.494952
   8 H :    0.156739
   9 H :    0.155579
  10 H :    0.160089
  11 H :    0.154677
  12 H :    0.153639
  13 H :    0.189930
  14 H :    0.186376
  15 H :    0.173505
  16 H :    0.170724
  17 H :    0.165403
  18 H :    0.169814
  19 H :    0.168572
Sum of atomic charges:    0.0000000

LOEWDIN ATOMIC CHARGES
----------------------
   0 C :   -0.426947
   1 C :   -0.300246
   2 C :   -0.229273
   3 C :    0.375785
   4 O :   -0.495033
   5 O :   -0.600988
   6 C :    0.030833
   7 C :   -0.394047
   8 H :    0.154354
   9 H :    0.154384
  10 H :    0.154856
  11 H :    0.160403
  12 H :    0.161358
  13 H :    0.193622
  14 H :    0.191982
  15 H :    0.188600
  16 H :    0.188771
  17 H :    0.161747
  18 H :    0.167523
  19 H :    0.162317

  Mayer bond orders larger than 0.100000
B(  0-C ,  1-C ) :   0.8793 B(  0-C ,  8-H ) :   0.9818 B(  0-C ,  9-H ) :   0.9788
B(  0-C , 10-H ) :   0.9729 B(  1-C ,  2-C ) :   0.9432 B(  1-C , 11-H ) :   0.9654
B(  1-C , 12-H ) :   0.9663 B(  2-C ,  3-C ) :   1.0127 B(  2-C , 13-H ) :   0.9292
B(  2-C , 14-H ) :   0.9355 B(  3-C ,  4-O ) :   1.7766 B(  3-C ,  5-O ) :   1.0942
B(  5-O ,  6-C ) :   0.7983 B(  6-C ,  7-C ) :   0.9358 B(  6-C , 15-H ) :   0.9525
B(  6-C , 16-H ) :   0.9648 B(  7-C , 17-H ) :   0.9698 B(  7-C , 18-H ) :   0.9600
B(  7-C , 19-H ) :   0.9698

Dispersion correction           -0.004902187
FINAL SINGLE POINT ENERGY      -386.241857593256

DIPOLE MOMENT
-------------

Method             : SCF
Type of density    : Electron Density
Multiplicity       :   1
Irrep              :   0
Energy             :  -386.2486530517394385 Eh
Relativity type    :
Basis              : AO
                                X                 Y                 Z
Electronic contribution:      3.976650077      -0.502426456      -2.352799534
Nuclear contribution   :     -3.647477744      -0.273728841       3.024686476
                        -----------------------------------------
Total Dipole Moment    :      0.329172333      -0.776155297       0.671886941
                        -----------------------------------------
Magnitude (a.u.)       :      1.078055440
Magnitude (Debye)      :      2.740199162

Rotational constants in cm-1:             0.200389             0.028360             0.027120
Rotational constants in MHz :          6007.498016           850.214663           813.047380

                             ****ORCA TERMINATED NORMALLY****
TOTAL RUN TIME: 0 days 0 hours 0 minutes 38 seconds 124 msec
