                         Program Version 6.0.0  -   RELEASE  -
|  1> ! r2scan-3c def2/J RI DEFGRID2 scfconv6 printgap
|  2> %output
|  3>     printlevel normal
|  4> end
|  5> * xyz 0 1
|  6> C -3.6769398341 -0.8443407944 -0.1330788265
|  7> C -2.643382284 0.1011645389 0.4674903173
|  8> C -1.2521833114 -0.1565100162 -0.1066599775
|  9> C -0.2076645828 0.7926787737 0.4989538233
| 10> C 1.1312570207 0.5086151323 -0.1254970772
| 11> O 1.5537286622 1.0389636268 -1.1323466172
| 12> O 1.7828675534 -0.4359793103 0.540389315
| 13> C 3.0539480286 -0.8804384281 0.0556433895
| 14> H -4.6603558186 -0.6476809341 0.2855226163
| 15> H -3.7297707536 -0.7154755221 -1.211636034
| 16> H -3.4142198236 -1.878721373 0.0754774033
| 17> H -2.9323863197 1.1335791318 0.2628818932
| 18> H -2.6156800355 -0.0302985633 1.5505785514
| 19> H -1.2712853412 -0.0197144495 -1.1902668929
| 20> H -0.9580416619 -1.1878905367 0.0983245393
| 21> H -0.1427222423 0.6320281256 1.5741209614
| 22> H -0.4813892061 1.8256472648 0.2864150715
| 23> H 3.8258002693 -0.5130767646 0.7303480613
| 24> H 3.2214693183 -0.4963520732 -0.9510875851
| 25> H 3.0341512939 -1.9676565761 0.058441868
| 26> *
| 27>
| 28>                          ****END OF INPUT****

CARTESIAN COORDINATES (ANGSTROEM)
---------------------------------
  C     -3.676940   -0.844341   -0.133079
  C     -2.643382    0.101165    0.467490
  C     -1.252183   -0.156510   -0.106660
  C     -0.207665    0.792679    0.498954
  C      1.131257    0.508615   -0.125497
  O      1.553729    1.038964   -1.132347
  O      1.782868   -0.435979    0.540389
  C      3.053948   -0.880438    0.055643
  H     -4.660356   -0.647681    0.285523
  H     -3.729771   -0.715476   -1.211636
  H     -3.414220   -1.878721    0.075477
  H     -2.932386    1.133579    0.262882
  H     -2.615680   -0.030299    1.550579
  H     -1.271285   -0.019714   -1.190267
  H     -0.958042   -1.187891    0.098325
  H     -0.142722    0.632028    1.574121
  H     -0.481389    1.825647    0.286415
  H      3.825800   -0.513077    0.730348
  H      3.221469   -0.496352   -0.951088
  H      3.034151   -1.967657    0.058442

 Total Charge           Charge          ....    0
 Multiplicity           Mult            ....    1
 Number of Electrons    NEL             ....   64
 Basis Dimension        Dim             ....  222

ORBITAL ENERGIES
----------------

  NO   OCC          E(Eh)            E(eV)
   0   2.0000     -18.998600      -516.9782
   1   2.0000     -18.926813      -515.0248
   2   2.0000     -10.151724      -276.2425
   3   2.0000     -10.084728      -274.4194
   4   2.0000     -10.041003      -273.2296
   5   2.0000     -10.037044      -273.1219
   6   2.0000     -10.031388      -272.9679
   7   2.0000     -10.020118      -272.6613
   8   2.0000      -1.071868       -29.1670
   9   2.0000      -0.974845       -26.5269
  10   2.0000      -0.780409       -21.2360
  11   2.0000      -0.729939       -19.8626
  12   2.0000      -0.686105       -18.6699
  13   2.0000      -0.617313       -16.7980
  14   2.0000      -0.555538       -15.1170
  15   2.0000      -0.533412       -14.5149
  16   2.0000      -0.466187       -12.6856
  17   2.0000      -0.456481       -12.4215
  18   2.0000      -0.451626       -12.2894
  19   2.0000      -0.432835       -11.7780
  20   2.0000      -0.407835       -11.0978
  21   2.0000      -0.389547       -10.6001
  22   2.0000      -0.385634       -10.4936
  23   2.0000      -0.369877       -10.0649
  24   2.0000      -0.347518        -9.4564
  25   2.0000      -0.331438        -9.0189
  26   2.0000      -0.320730        -8.7275
  27   2.0000      -0.311543        -8.4775
  28   2.0000      -0.303348        -8.2545
  29   2.0000      -0.301923        -8.2157
  30   2.0000      -0.270581        -7.3629
  31   2.0000      -0.234407        -6.3785
  32   0.0000      -0.013381        -0.3641
  33   0.0000       0.066830         1.8185
  34   0.0000       0.093284         2.5384
  35   0.0000       0.100592         2.7372
  36   0.0000       0.120852         3.2885

MULLIKEN ATOMIC CHARGES
-----------------------
   0 C :   -0.464416
   1 C :   -0.239403
   2 C :   -0.281713
   3 C :   -0.321098
   4 C :    0.426936
   5 O :   -0.437134
   6 O :   -0.199734
   7 C :   -0.302397
   8 H :    0.148686
   9 H :    0.144343
  10 H :    0.142967
  11 H :    0.139668
  12 H :    0.138157
  13 H :    0.156493
  14 H :    0.147337
  15 H :    0.155557
  16 H :    0.161309
  17 H :    0.149036
  18 H :    0.187946
  19 H :    0.147460
Sum of atomic charges:   -0.0000000

LOEWDIN ATOMIC CHARGES
----------------------
   0 C :   -0.422414
   1 C :   -0.312786
   2 C :   -0.280816
   3 C :   -0.226139
   4 C :    0.354865
   5 O :   -0.437802
   6 O :   -0.603329
   7 C :   -0.046192
   8 H :    0.151277
   9 H :    0.151079
  10 H :    0.150219
  11 H :    0.152625
  12 H :    0.151786
  13 H :    0.163643
  14 H :    0.160521
  15 H :    0.176941
  16 H :    0.177738
  17 H :    0.172626
  18 H :    0.192546
  19 H :    0.173611

  Mayer bond orders larger than 0.100000
B(  0-C ,  1-C ) :   0.9016 B(  0-C ,  8-H ) :   0.9750 B(  0-C ,  9-H ) :   0.9820
B(  0-C , 10-H ) :   0.9840 B(  1-C ,  2-C ) :   0.9251 B(  1-C , 11-H ) :   0.9720
B(  1-C , 12-H ) :   0.9760 B(  2-C ,  3-C ) :   0.9329 B(  2-C , 13-H ) :   0.9622
B(  2-C , 14-H ) :   0.9677 B(  3-C ,  4-C ) :   0.9733 B(  3-C , 15-H ) :   0.9764
B(  3-C , 16-H ) :   0.9727 B(  4-C ,  5-O ) :   1.8477 B(  4-C ,  6-O ) :   1.0360
B(  6-O ,  7-C ) :   0.8420 B(  7-C , 17-H ) :   0.9631 B(  7-C , 18-H ) :   0.9672
B(  7-C , 19-H ) :   0.9664

Dispersion correction           -0.004913619
FINAL SINGLE POINT ENERGY      -386.229215280705

DIPOLE MOMENT
-------------

Method             : SCF
Type of density    : Electron Density
Multiplicity       :   1
Irrep              :   0
Energy             :  -386.2362964642562702 Eh
Relativity type    :
Basis              : AO
                                X                 Y                 Z
Electronic contribution:      9.291808422       3.054673816      -0.866956502
Nuclear contribution   :     -9.448927766      -3.617647551       1.463318914
                        -----------------------------------------
Total Dipole Moment    :     -0.157119344      -0.562973735       0.596362412
                        -----------------------------------------
Magnitude (a.u.)       :      0.835029365
Magnitude (Debye)      :      2.122475971

Rotational constants in cm-1:             0.162572             0.027256             0.025734
Rotational constants in MHz :          4873.772767           817.116083           771.492776

                             ****ORCA TERMINATED NORMALLY****
TOTAL RUN TIME: 0 days 0 hours 0 minutes 25 seconds 141 msec
