                         Program Version 6.0.0  -   RELEASE  -
|  1> ! r2scan-3c def2/J RI DEFGRID2 scfconv6 printgap
|  2> %output
|  3>     printlevel normal
|  4> end
|  5> %cpcm
|  6>     smd true
|  7>     smdsolvent "water"
|  8> end
|  9> * xyz 0 1
| 10> C -3.6769398341 -0.8443407944 -0.1330788265
| 11> C -2.643382284 0.1011645389 0.4674903173
| 12> C -1.2521833114 -0.1565100162 -0.1066599775
| 13> C -0.2076645828 0.7926787737 0.4989538233
| 14> C 1.1312570207 0.5086151323 -0.1254970772
| 15> O 1.5537286622 1.0389636268 -1.1323466172
| 16> O 1.7828675534 -0.4359793103 0.540389315
| 17> C 3.0539480286 -0.8804384281 0.0556433895
| 18> H -4.6603558186 -0.6476809341 0.2855226163
| 19> H -3.7297707536 -0.7154755221 -1.211636034
| 20> H -3.4142198236 -1.878721373 0.0754774033
| 21> H -2.9323863197 1.1335791318 0.2628818932
| 22> H -2.6156800355 -0.0302985633 1.5505785514
| 23> H -1.2712853412 -0.0197144495 -1.1902668929
| 24> H -0.9580416619 -1.1878905367 0.0983245393
| 25> H -0.1427222423 0.6320281256 1.5741209614
| 26> H -0.4813892061 1.8256472648 0.2864150715
| 27> H 3.8258002693 -0.5130767646 0.7303480613
| 28> H 3.2214693183 -0.4963520732 -0.9510875851
| 29> H 3.0341512939 -1.9676565761 0.058441868
| 30> *
| 31>
| 32>                          ****END OF INPUT****

CARTESIAN COORDINATES (ANGSTROEM)
---------------------------------
  C     -3.676940   -0.844341   -0.133079
  C     -2.643382    0.101165    0.467490
  C     -1.252183   -0.156510   -0.106660
  C     -0.207665    0.792679    0.498954
  C      1.131257    0.508615   -0.125497
  O      1.553729    1.038964   -1.132347
  O      1.782868   -0.435979    0.540389
  C      3.053948   -0.880438    0.055643
  H     -4.660356   -0.647681    0.285523
  H     -3.729771   -0.715476   -1.211636
  H     -3.414220   -1.878721    0.075477
  H     -2.932386    1.133579    0.262882
  H     -2.615680   -0.030299    1.550579
  H     -1.271285   -0.019714   -1.190267
  H     -0.958042   -1.187891    0.098325
  H     -0.142722    0.632028    1.574121
  H     -0.481389    1.825647    0.286415
  H      3.825800   -0.513077    0.730348
  H      3.221469   -0.496352   -0.951088
  H      3.034151   -1.967657    0.058442

 Total Charge           Charge          ....    0
 Multiplicity           Mult            ....    1
 Number of Electrons    NEL             ....   64
 Basis Dimension        Dim             ....  222

ORBITAL ENERGIES
----------------

  NO   OCC          E(Eh)            E(eV)
   0   2.0000     -19.004168      -517.1297
   1   2.0000     -18.942694      -515.4569
   2   2.0000     -10.162177      -276.5269
   3   2.0000     -10.074951      -274.1533
   4   2.0000     -10.035108      -273.0692
   5   2.0000     -10.028037      -272.8768
   6   2.0000     -10.019648      -272.6485
   7   2.0000     -10.008934      -272.3570
   8   2.0000      -1.078898       -29.3583
   9   2.0000      -0.988718       -26.9044
  10   2.0000      -0.772877       -21.0310
  11   2.0000      -0.723745       -19.6941
  12   2.0000      -0.679074       -18.4785
  13   2.0000      -0.609392       -16.5824
  14   2.0000      -0.545441       -14.8422
  15   2.0000      -0.531788       -14.4707
  16   2.0000      -0.467636       -12.7250
  17   2.0000      -0.458114       -12.4659
  18   2.0000      -0.450687       -12.2638
  19   2.0000      -0.433580       -11.7983
  20   2.0000      -0.399442       -10.8694
  21   2.0000      -0.388277       -10.5656
  22   2.0000      -0.377460       -10.2712
  23   2.0000      -0.366846        -9.9824
  24   2.0000      -0.342268        -9.3136
  25   2.0000      -0.322644        -8.7796
  26   2.0000      -0.321305        -8.7432
  27   2.0000      -0.301711        -8.2100
  28   2.0000      -0.297900        -8.1063
  29   2.0000      -0.292291        -7.9536
  30   2.0000      -0.277246        -7.5442
  31   2.0000      -0.249755        -6.7962
  32   0.0000      -0.021611        -0.5881
  33   0.0000       0.071492         1.9454
  34   0.0000       0.102081         2.7778
  35   0.0000       0.110982         3.0200
  36   0.0000       0.130464         3.5501

MULLIKEN ATOMIC CHARGES
-----------------------
   0 C :   -0.508813
   1 C :   -0.252639
   2 C :   -0.273188
   3 C :   -0.349619
   4 C :    0.460988
   5 O :   -0.521330
   6 O :   -0.215229
   7 C :   -0.317814
   8 H :    0.158824
   9 H :    0.154785
  10 H :    0.155291
  11 H :    0.150949
  12 H :    0.150934
  13 H :    0.160097
  14 H :    0.158964
  15 H :    0.176224
  16 H :    0.176635
  17 H :    0.176667
  18 H :    0.183312
  19 H :    0.174963
Sum of atomic charges:   -0.0000000

LOEWDIN ATOMIC CHARGES
----------------------
   0 C :   -0.430768
   1 C :   -0.312180
   2 C :   -0.279385
   3 C :   -0.224794
   4 C :    0.363342
   5 O :   -0.499573
   6 O :   -0.604629
   7 C :   -0.040692
   8 H :    0.153686
   9 H :    0.153068
  10 H :    0.153006
  11 H :    0.155678
  12 H :    0.155662
  13 H :    0.164082
  14 H :    0.164234
  15 H :    0.185917
  16 H :    0.183026
  17 H :    0.183520
  18 H :    0.191243
  19 H :    0.185557

  Mayer bond orders larger than 0.100000
B(  0-C ,  1-C ) :   0.8899 B(  0-C ,  8-H ) :   0.9722 B(  0-C ,  9-H ) :   0.9805
B(  0-C , 10-H ) :   0.9817 B(  1-C ,  2-C ) :   0.9205 B(  1-C , 11-H ) :   0.9726
B(  1-C , 12-H ) :   0.9755 B(  2-C ,  3-C ) :   0.9215 B(  2-C , 13-H ) :   0.9620
B(  2-C , 14-H ) :   0.9632 B(  3-C ,  4-C ) :   0.9713 B(  3-C , 15-H ) :   0.9654
B(  3-C , 16-H ) :   0.9717 B(  4-C ,  5-O ) :   1.7798 B(  4-C ,  6-O ) :   1.0625
B(  6-O ,  7-C ) :   0.8289 B(  7-C , 17-H ) :   0.9540 B(  7-C , 18-H ) :   0.9638
B(  7-C , 19-H ) :   0.9568

Dispersion correction           -0.004913619
FINAL SINGLE POINT ENERGY      -386.233494860854

DIPOLE MOMENT
-------------

Method             : SCF
Type of density    : Electron Density
Multiplicity       :   1
Irrep              :   0
Energy             :  -386.2405760444052589 Eh
Relativity type    :
Basis              : AO
                                X                 Y                 Z
Electronic contribution:      9.251351767       2.847666593      -0.585808259
Nuclear contribution   :     -9.448927766      -3.617647551       1.463318914
                        -----------------------------------------
Total Dipole Moment    :     -0.197575999      -0.769980958       0.877510655
                        -----------------------------------------
Magnitude (a.u.)       :      1.184032052
Magnitude (Debye)      :      3.009570302

Rotational constants in cm-1:             0.162572             0.027256             0.025734
Rotational constants in MHz :          4873.772767           817.116083           771.492776

                             ****ORCA TERMINATED NORMALLY****
TOTAL RUN TIME: 0 days 0 hours 0 minutes 33 seconds 48 msec
