                         Program Version 6.0.0  -   RELEASE  -
|  1> ! r2scan-3c def2/J RI DEFGRID2 scfconv6 printgap
|  2> %output
|  3>     printlevel normal
|  4> end
|  5> * xyz 0 1
|  6> C -2.739910845 -0.2864494811 -0.8040467511
|  7> C -1.8825599053 -0.7978704349 0.3485282689
|  8> C -1.2542457396 0.3238866816 1.1769637689
|  9> C -0.315839211 1.228105194 0.366358981
| 10> C 0.7827791045 0.4307538204 -0.2862755435
| 11> O 0.9404137506 0.320919677 -1.4851379433
| 12> O 1.5698802193 -0.1408079155 0.6165136986
| 13> C 2.6633889419 -0.9501446909 0.1760458398
| 14> H -3.2708430877 -1.1120755294 -1.271364865
| 15> H -3.4707924063 0.4343296005 -0.4453935406
| 16> H -2.1224599283 0.186713378 -1.5637281826
| 17> H -2.500570955 -1.4065833783 1.0118214521
| 18> H -1.0946154823 -1.4412670769 -0.0514713551
| 19> H -0.6883910242 -0.1174214841 1.9989254758
| 20> H -2.0450915708 0.9448580994 1.5999168681
| 21> H 0.1457350822 1.951702466 1.0388487145
| 22> H -0.8613743247 1.7576451172 -0.4128676774
| 23> H 3.5554456063 -0.59263238 0.6856642521
| 24> H 2.7757632488 -0.8652699994 -0.9055074674
| 25> H 2.4571083041 -1.9827652351 0.4540775004
| 26> *
| 27>
| 28>                          ****END OF INPUT****

CARTESIAN COORDINATES (ANGSTROEM)
---------------------------------
  C     -2.739911   -0.286449   -0.804047
  C     -1.882560   -0.797870    0.348528
  C     -1.254246    0.323887    1.176964
  C     -0.315839    1.228105    0.366359
  C      0.782779    0.430754   -0.286276
  O      0.940414    0.320920   -1.485138
  O      1.569880   -0.140808    0.616514
  C      2.663389   -0.950145    0.176046
  H     -3.270843   -1.112076   -1.271365
  H     -3.470792    0.434330   -0.445394
  H     -2.122460    0.186713   -1.563728
  H     -2.500571   -1.406583    1.011821
  H     -1.094615   -1.441267   -0.051471
  H     -0.688391   -0.117421    1.998925
  H     -2.045092    0.944858    1.599917
  H      0.145735    1.951702    1.038849
  H     -0.861374    1.757645   -0.412868
  H      3.555446   -0.592632    0.685664
  H      2.775763   -0.865270   -0.905507
  H      2.457108   -1.982765    0.454078

 Total Charge           Charge          ....    0
 Multiplicity           Mult            ....    1
 Number of Electrons    NEL             ....   64
 Basis Dimension        Dim             ....  222

ORBITAL ENERGIES
----------------

  NO   OCC          E(Eh)            E(eV)
   0   2.0000     -18.999744      -517.0093
   1   2.0000     -18.929097      -515.0869
   2   2.0000     -10.153500      -276.2908
   3   2.0000     -10.085790      -274.4483
   4   2.0000     -10.041197      -273.2349
   5   2.0000     -10.035313      -273.0748
   6   2.0000     -10.027644      -272.8661
   7   2.0000     -10.014236      -272.5012
   8   2.0000      -1.073350       -29.2073
   9   2.0000      -0.976547       -26.5732
  10   2.0000      -0.780235       -21.2313
  11   2.0000      -0.724396       -19.7118
  12   2.0000      -0.682995       -18.5852
  13   2.0000      -0.624284       -16.9876
  14   2.0000      -0.554455       -15.0875
  15   2.0000      -0.528428       -14.3793
  16   2.0000      -0.468467       -12.7476
  17   2.0000      -0.457326       -12.4445
  18   2.0000      -0.443663       -12.0727
  19   2.0000      -0.427584       -11.6351
  20   2.0000      -0.421307       -11.4644
  21   2.0000      -0.387290       -10.5387
  22   2.0000      -0.376546       -10.2463
  23   2.0000      -0.363948        -9.9035
  24   2.0000      -0.354824        -9.6552
  25   2.0000      -0.340536        -9.2665
  26   2.0000      -0.318047        -8.6545
  27   2.0000      -0.304037        -8.2733
  28   2.0000      -0.298999        -8.1362
  29   2.0000      -0.296998        -8.0817
  30   2.0000      -0.272442        -7.4135
  31   2.0000      -0.235336        -6.4038
  32   0.0000      -0.015698        -0.4272
  33   0.0000       0.063096         1.7169
  34   0.0000       0.091550         2.4912
  35   0.0000       0.105615         2.8739
  36   0.0000       0.117952         3.2096

MULLIKEN ATOMIC CHARGES
-----------------------
   0 C :   -0.502536
   1 C :   -0.205076
   2 C :   -0.289011
   3 C :   -0.348504
   4 C :    0.380022
   5 O :   -0.428058
   6 O :   -0.185284
   7 C :   -0.302574
   8 H :    0.146077
   9 H :    0.144803
  10 H :    0.170354
  11 H :    0.142638
  12 H :    0.143507
  13 H :    0.158051
  14 H :    0.151375
  15 H :    0.159643
  16 H :    0.177262
  17 H :    0.147957
  18 H :    0.190605
  19 H :    0.148750
Sum of atomic charges:   -0.0000000

LOEWDIN ATOMIC CHARGES
----------------------
   0 C :   -0.423751
   1 C :   -0.310856
   2 C :   -0.288582
   3 C :   -0.229485
   4 C :    0.351436
   5 O :   -0.438401
   6 O :   -0.603705
   7 C :   -0.046401
   8 H :    0.152556
   9 H :    0.149150
  10 H :    0.157373
  11 H :    0.153363
  12 H :    0.157227
  13 H :    0.165369
  14 H :    0.156690
  15 H :    0.180278
  16 H :    0.177932
  17 H :    0.173938
  18 H :    0.193502
  19 H :    0.172366

  Mayer bond orders larger than 0.100000
B(  0-C ,  1-C ) :   0.8943 B(  0-C ,  8-H ) :   0.9680 B(  0-C ,  9-H ) :   0.9840
B(  0-C , 10-H ) :   0.9717 B(  1-C ,  2-C ) :   0.9029 B(  1-C , 11-H ) :   0.9595
B(  1-C , 12-H ) :   0.9639 B(  2-C ,  3-C ) :   0.8732 B(  2-C , 13-H ) :   0.9736
B(  2-C , 14-H ) :   0.9804 B(  3-C ,  4-C ) :   0.9612 B(  3-C , 15-H ) :   0.9433
B(  3-C , 16-H ) :   1.0028 B(  4-C ,  5-O ) :   1.8590 B(  4-C ,  6-O ) :   1.0414
B(  6-O ,  7-C ) :   0.8398 B(  7-C , 17-H ) :   0.9667 B(  7-C , 18-H ) :   0.9693
B(  7-C , 19-H ) :   0.9622

Dispersion correction           -0.005405329
FINAL SINGLE POINT ENERGY      -386.229289242379

DIPOLE MOMENT
-------------

Method             : SCF
Type of density    : Electron Density
Multiplicity       :   1
Irrep              :   0
Energy             :  -386.2360353423549100 Eh
Relativity type    :
Basis              : AO
                                X                 Y                 Z
Electronic contribution:      6.722346122       1.917202030      -1.187752791
Nuclear contribution   :     -6.642605025      -2.101418044       1.993784512
                        -----------------------------------------
Total Dipole Moment    :      0.079741097      -0.184216014       0.806031722
                        -----------------------------------------
Magnitude (a.u.)       :      0.830651141
Magnitude (Debye)      :      2.111347410

Rotational constants in cm-1:             0.115537             0.039437             0.037334
Rotational constants in MHz :          3463.709672          1182.289640          1119.239398

                             ****ORCA TERMINATED NORMALLY****
TOTAL RUN TIME: 0 days 0 hours 0 minutes 26 seconds 618 msec
