                         Program Version 6.0.0  -   RELEASE  -
|  1> ! r2scan-3c def2/J RI DEFGRID2 scfconv6 printgap
|  2> %output
|  3>     printlevel normal
|  4> end
|  5> %cpcm
|  6>     smd true
|  7>     smdsolvent "water"
|  8> end
|  9> * xyz 0 1
| 10> C -2.739910845 -0.2864494811 -0.8040467511
| 11> C -1.8825599053 -0.7978704349 0.3485282689
| 12> C -1.2542457396 0.3238866816 1.1769637689
| 13> C -0.315839211 1.228105194 0.366358981
| 14> C 0.7827791045 0.4307538204 -0.2862755435
| 15> O 0.9404137506 0.320919677 -1.4851379433
| 16> O 1.5698802193 -0.1408079155 0.6165136986
| 17> C 2.6633889419 -0.9501446909 0.1760458398
| 18> H -3.2708430877 -1.1120755294 -1.271364865
| 19> H -3.4707924063 0.4343296005 -0.4453935406
| 20> H -2.1224599283 0.186713378 -1.5637281826
| 21> H -2.500570955 -1.4065833783 1.0118214521
| 22> H -1.0946154823 -1.4412670769 -0.0514713551
| 23> H -0.6883910242 -0.1174214841 1.9989254758
| 24> H -2.0450915708 0.9448580994 1.5999168681
| 25> H 0.1457350822 1.951702466 1.0388487145
| 26> H -0.8613743247 1.7576451172 -0.4128676774
| 27> H 3.5554456063 -0.59263238 0.6856642521
| 28> H 2.7757632488 -0.8652699994 -0.9055074674
| 29> H 2.4571083041 -1.9827652351 0.4540775004
| 30> *
| 31>
| 32>                          ****END OF INPUT****

CARTESIAN COORDINATES (ANGSTROEM)
---------------------------------
  C     -2.739911   -0.286449   -0.804047
  C     -1.882560   -0.797870    0.348528
  C     -1.254246    0.323887    1.176964
  C     -0.315839    1.228105    0.366359
  C      0.782779    0.430754   -0.286276
  O      0.940414    0.320920   -1.485138
  O      1.569880   -0.140808    0.616514
  C      2.663389   -0.950145    0.176046
  H     -3.270843   -1.112076   -1.271365
  H     -3.470792    0.434330   -0.445394
  H     -2.122460    0.186713   -1.563728
  H     -2.500571   -1.406583    1.011821
  H     -1.094615   -1.441267   -0.051471
  H     -0.688391   -0.117421    1.998925
  H     -2.045092    0.944858    1.599917
  H      0.145735    1.951702    1.038849
  H     -0.861374    1.757645   -0.412868
  H      3.555446   -0.592632    0.685664
  H      2.775763   -0.865270   -0.905507
  H      2.457108   -1.982765    0.454078

 Total Charge           Charge          ....    0
 Multiplicity           Mult            ....    1
 Number of Electrons    NEL             ....   64
 Basis Dimension        Dim             ....  222

ORBITAL ENERGIES
----------------

  NO   OCC          E(Eh)            E(eV)
   0   2.0000     -19.004164      -517.1296
   1   2.0000     -18.943549      -515.4802
   2   2.0000     -10.162919      -276.5471
   3   2.0000     -10.075140      -274.1585
   4   2.0000     -10.035140      -273.0700
   5   2.0000     -10.026810      -272.8434
   6   2.0000     -10.019881      -272.6548
   7   2.0000     -10.008339      -272.3408
   8   2.0000      -1.079208       -29.3667
   9   2.0000      -0.989081       -26.9143
  10   2.0000      -0.774315       -21.0702
  11   2.0000      -0.719656       -19.5828
  12   2.0000      -0.676422       -18.4064
  13   2.0000      -0.618202       -16.8221
  14   2.0000      -0.548845       -14.9348
  15   2.0000      -0.525285       -14.2937
  16   2.0000      -0.466762       -12.7012
  17   2.0000      -0.458578       -12.4786
  18   2.0000      -0.450945       -12.2708
  19   2.0000      -0.422091       -11.4857
  20   2.0000      -0.416803       -11.3418
  21   2.0000      -0.384252       -10.4560
  22   2.0000      -0.374118       -10.1803
  23   2.0000      -0.358230        -9.7479
  24   2.0000      -0.349054        -9.4982
  25   2.0000      -0.338376        -9.2077
  26   2.0000      -0.319450        -8.6927
  27   2.0000      -0.297072        -8.0837
  28   2.0000      -0.293025        -7.9736
  29   2.0000      -0.290152        -7.8954
  30   2.0000      -0.277873        -7.5613
  31   2.0000      -0.249468        -6.7884
  32   0.0000      -0.022940        -0.6242
  33   0.0000       0.068648         1.8680
  34   0.0000       0.098986         2.6935
  35   0.0000       0.114346         3.1115
  36   0.0000       0.122780         3.3410

MULLIKEN ATOMIC CHARGES
-----------------------
   0 C :   -0.530841
   1 C :   -0.225657
   2 C :   -0.290043
   3 C :   -0.366499
   4 C :    0.410759
   5 O :   -0.511519
   6 O :   -0.200691
   7 C :   -0.316863
   8 H :    0.157465
   9 H :    0.159569
  10 H :    0.163814
  11 H :    0.155384
  12 H :    0.151389
  13 H :    0.163168
  14 H :    0.169128
  15 H :    0.188479
  16 H :    0.186673
  17 H :    0.174599
  18 H :    0.185230
  19 H :    0.176458
Sum of atomic charges:   -0.0000000

LOEWDIN ATOMIC CHARGES
----------------------
   0 C :   -0.430990
   1 C :   -0.313117
   2 C :   -0.286093
   3 C :   -0.228039
   4 C :    0.360211
   5 O :   -0.498691
   6 O :   -0.604895
   7 C :   -0.040755
   8 H :    0.154511
   9 H :    0.154335
  10 H :    0.153754
  11 H :    0.157726
  12 H :    0.157821
  13 H :    0.166583
  14 H :    0.163785
  15 H :    0.191282
  16 H :    0.181646
  17 H :    0.185264
  18 H :    0.192003
  19 H :    0.183659

  Mayer bond orders larger than 0.100000
B(  0-C ,  1-C ) :   0.8899 B(  0-C ,  8-H ) :   0.9668 B(  0-C ,  9-H ) :   0.9791
B(  0-C , 10-H ) :   0.9741 B(  1-C ,  2-C ) :   0.8951 B(  1-C , 11-H ) :   0.9575
B(  1-C , 12-H ) :   0.9655 B(  2-C ,  3-C ) :   0.8639 B(  2-C , 13-H ) :   0.9749
B(  2-C , 14-H ) :   0.9758 B(  3-C ,  4-C ) :   0.9588 B(  3-C , 15-H ) :   0.9343
B(  3-C , 16-H ) :   0.9966 B(  4-C ,  5-O ) :   1.7903 B(  4-C ,  6-O ) :   1.0686
B(  6-O ,  7-C ) :   0.8272 B(  7-C , 17-H ) :   0.9572 B(  7-C , 18-H ) :   0.9658
B(  7-C , 19-H ) :   0.9532

Dispersion correction           -0.005405329
FINAL SINGLE POINT ENERGY      -386.233513876705

DIPOLE MOMENT
-------------

Method             : SCF
Type of density    : Electron Density
Multiplicity       :   1
Irrep              :   0
Energy             :  -386.2402599766806475 Eh
Relativity type    :
Basis              : AO
                                X                 Y                 Z
Electronic contribution:      6.729942383       1.892295747      -0.800273794
Nuclear contribution   :     -6.642605025      -2.101418044       1.993784512
                        -----------------------------------------
Total Dipole Moment    :      0.087337358      -0.209122296       1.193510718
                        -----------------------------------------
Magnitude (a.u.)       :      1.214836526
Magnitude (Debye)      :      3.087869051

Rotational constants in cm-1:             0.115537             0.039437             0.037334
Rotational constants in MHz :          3463.709672          1182.289640          1119.239398

                             ****ORCA TERMINATED NORMALLY****
TOTAL RUN TIME: 0 days 0 hours 0 minutes 34 seconds 754 msec
