                         Program Version 6.0.0  -   RELEASE  -
|  1> ! pbe def2-sv(p) def2/J RI DEFGRID1 loosescf d4 GCP(DFT/SV(P)) printgap
|  2> %output
|  3>     printlevel normal
|  4> end
|  5> * xyz 0 1
|  6> C -1.9883491147 0.6401320646 0.5768510182
|  7> C -1.4902738991 -0.574645111 -0.1965183415
|  8> C -0.216534539 -0.2598628874 -0.9878165043
|  9> N 0.8881177028 -0.0169410204 -0.0670386995
| 10> O 1.4205920686 1.0745661489 -0.0827351846
| 11> O 1.2162076534 -0.9166662347 0.6789849875
| 12> H -2.1943997817 1.4677513583 -0.0973341156
| 13> H -2.9026498971 0.3950795774 1.1094439832
| 14> H -1.2504013018 0.9693131115 1.3065337653
| 15> H -2.2541887929 -0.9013811293 -0.9007909636
| 16> H -1.2806873427 -1.3959785452 0.4908655668
| 17> H 0.0542859681 -1.1221117612 -1.6001341936
| 18> H -0.3365107342 0.6325494785 -1.6026313816
| 19> *
| 20>
| 21>                          ****END OF INPUT****

CARTESIAN COORDINATES (ANGSTROEM)
---------------------------------
  C     -1.988349    0.640132    0.576851
  C     -1.490274   -0.574645   -0.196518
  C     -0.216535   -0.259863   -0.987817
  N      0.888118   -0.016941   -0.067039
  O      1.420592    1.074566   -0.082735
  O      1.216208   -0.916666    0.678985
  H     -2.194400    1.467751   -0.097334
  H     -2.902650    0.395080    1.109444
  H     -1.250401    0.969313    1.306534
  H     -2.254189   -0.901381   -0.900791
  H     -1.280687   -1.395979    0.490866
  H      0.054286   -1.122112   -1.600134
  H     -0.336511    0.632549   -1.602631

 Total Charge           Charge          ....    0
 Multiplicity           Mult            ....    1
 Number of Electrons    NEL             ....   48
 Basis Dimension        Dim             ....   98

ORBITAL ENERGIES
----------------

  NO   OCC          E(Eh)            E(eV)
   0   2.0000     -18.781863      -511.0805
   1   2.0000     -18.780663      -511.0478
   2   2.0000     -14.205736      -386.5577
   3   2.0000      -9.948401      -270.7098
   4   2.0000      -9.914427      -269.7853
   5   2.0000      -9.892846      -269.1980
   6   2.0000      -1.133717       -30.8500
   7   2.0000      -0.962802       -26.1992
   8   2.0000      -0.770302       -20.9610
   9   2.0000      -0.682966       -18.5844
  10   2.0000      -0.583652       -15.8820
  11   2.0000      -0.524450       -14.2710
  12   2.0000      -0.498589       -13.5673
  13   2.0000      -0.477158       -12.9841
  14   2.0000      -0.452926       -12.3247
  15   2.0000      -0.420711       -11.4481
  16   2.0000      -0.404058       -10.9950
  17   2.0000      -0.383565       -10.4373
  18   2.0000      -0.333138        -9.0652
  19   2.0000      -0.326651        -8.8886
  20   2.0000      -0.321103        -8.7377
  21   2.0000      -0.273920        -7.4537
  22   2.0000      -0.254450        -6.9239
  23   2.0000      -0.232818        -6.3353
  24   0.0000      -0.096228        -2.6185
  25   0.0000       0.029750         0.8095
  26   0.0000       0.064238         1.7480
  27   0.0000       0.069015         1.8780
  28   0.0000       0.089954         2.4478

MULLIKEN ATOMIC CHARGES
-----------------------
   0 C :   -0.293118
   1 C :   -0.226791
   2 C :   -0.029486
   3 N :    0.167851
   4 O :   -0.216631
   5 O :   -0.217745
   6 H :    0.107447
   7 H :    0.117401
   8 H :    0.124259
   9 H :    0.108284
  10 H :    0.122042
  11 H :    0.128953
  12 H :    0.107535
Sum of atomic charges:    0.0000000

LOEWDIN ATOMIC CHARGES
----------------------
   0 C :   -0.344373
   1 C :   -0.240017
   2 C :   -0.181739
   3 N :    0.239504
   4 O :   -0.186849
   5 O :   -0.191623
   6 H :    0.122027
   7 H :    0.127135
   8 H :    0.125206
   9 H :    0.128726
  10 H :    0.130404
  11 H :    0.141116
  12 H :    0.130484

  Mayer bond orders larger than 0.100000
B(  0-C ,  1-C ) :   1.1456 B(  0-C ,  6-H ) :   0.9537 B(  0-C ,  7-H ) :   0.9512
B(  0-C ,  8-H ) :   0.9524 B(  1-C ,  2-C ) :   1.1083 B(  1-C ,  9-H ) :   0.9217
B(  1-C , 10-H ) :   0.9146 B(  2-C ,  3-N ) :   0.9073 B(  2-C , 11-H ) :   0.9086
B(  2-C , 12-H ) :   0.9152 B(  3-N ,  4-O ) :   1.5500 B(  3-N ,  5-O ) :   1.5332
B(  4-O ,  5-O ) :   0.3096

Dispersion correction           -0.008873135
FINAL SINGLE POINT ENERGY      -322.969473551801

DIPOLE MOMENT
-------------

Method             : SCF
Type of density    : Electron Density
Multiplicity       :   1
Irrep              :   0
Energy             :  -323.0202940421575022 Eh
Relativity type    :
Basis              : AO
                                X                 Y                 Z
Electronic contribution:      8.375512998      -0.282647316       0.490875701
Nuclear contribution   :     -9.492079349       0.044676955      -1.205558801
                        -----------------------------------------
Total Dipole Moment    :     -1.116566351      -0.237970361      -0.714683100
                        -----------------------------------------
Magnitude (a.u.)       :      1.346893552
Magnitude (Debye)      :      3.423531338

Rotational constants in cm-1:             0.204874             0.085802             0.079184
Rotational constants in MHz :          6141.960813          2572.289124          2373.872339

                             ****ORCA TERMINATED NORMALLY****
TOTAL RUN TIME: 0 days 0 hours 0 minutes 9 seconds 855 msec
