                         Program Version 6.0.0  -   RELEASE  -
|  1> ! r2scan-3c def2/J RI DEFGRID2 scfconv6 printgap
|  2> %output
|  3>     printlevel normal
|  4> end
|  5> * xyz 0 1
|  6> C -2.7272148074 -0.79410952 0.3756586397
|  7> C -1.8847669925 -0.3147665447 -0.801440354
|  8> C -1.2667594544 1.0664237845 -0.5785395308
|  9> C -0.3190710668 1.1223037199 0.6272068462
| 10> C 0.7889840629 0.1111573723 0.4996206862
| 11> O 0.9805733377 -0.8143179902 1.2613384071
| 12> O 1.5533272525 0.3453156063 -0.5615486927
| 13> C 2.6379390252 -0.5516389318 -0.8061378276
| 14> H -2.1007493494 -1.0024933552 1.2396138363
| 15> H -3.4639541011 -0.0423849967 0.6485105763
| 16> H -3.250717731 -1.7101679872 0.1134930948
| 17> H -1.091760019 -1.0422987708 -0.993006664
| 18> H -2.5113992994 -0.2678969844 -1.6944726699
| 19> H -2.0627199398 1.7955517803 -0.4213770075
| 20> H -0.7103724279 1.3530370772 -1.4722635353
| 21> H -0.8543553231 0.9265343382 1.5548157101
| 22> H 0.1334763145 2.1133103186 0.6752980424
| 23> H 3.3656445811 -0.4853999584 0.0035806816
| 24> H 3.0738043943 -0.2352741246 -1.7484474055
| 25> H 2.2702667789 -1.5768549596 -0.8674642006
| 26> *
| 27>
| 28>                          ****END OF INPUT****

CARTESIAN COORDINATES (ANGSTROEM)
---------------------------------
  C     -2.727215   -0.794110    0.375659
  C     -1.884767   -0.314767   -0.801440
  C     -1.266759    1.066424   -0.578540
  C     -0.319071    1.122304    0.627207
  C      0.788984    0.111157    0.499621
  O      0.980573   -0.814318    1.261338
  O      1.553327    0.345316   -0.561549
  C      2.637939   -0.551639   -0.806138
  H     -2.100749   -1.002493    1.239614
  H     -3.463954   -0.042385    0.648511
  H     -3.250718   -1.710168    0.113493
  H     -1.091760   -1.042299   -0.993007
  H     -2.511399   -0.267897   -1.694473
  H     -2.062720    1.795552   -0.421377
  H     -0.710372    1.353037   -1.472264
  H     -0.854355    0.926534    1.554816
  H      0.133476    2.113310    0.675298
  H      3.365645   -0.485400    0.003581
  H      3.073804   -0.235274   -1.748447
  H      2.270267   -1.576855   -0.867464

 Total Charge           Charge          ....    0
 Multiplicity           Mult            ....    1
 Number of Electrons    NEL             ....   64
 Basis Dimension        Dim             ....  222

ORBITAL ENERGIES
----------------

  NO   OCC          E(Eh)            E(eV)
   0   2.0000     -19.000094      -517.0188
   1   2.0000     -18.929537      -515.0989
   2   2.0000     -10.152369      -276.2600
   3   2.0000     -10.087824      -274.5036
   4   2.0000     -10.041617      -273.2463
   5   2.0000     -10.035397      -273.0770
   6   2.0000     -10.027974      -272.8751
   7   2.0000     -10.014789      -272.5162
   8   2.0000      -1.074291       -29.2329
   9   2.0000      -0.976089       -26.5607
  10   2.0000      -0.780494       -21.2383
  11   2.0000      -0.724140       -19.7049
  12   2.0000      -0.682842       -18.5811
  13   2.0000      -0.624753       -17.0004
  14   2.0000      -0.554966       -15.1014
  15   2.0000      -0.528979       -14.3942
  16   2.0000      -0.468482       -12.7480
  17   2.0000      -0.458041       -12.4639
  18   2.0000      -0.443290       -12.0625
  19   2.0000      -0.426840       -11.6149
  20   2.0000      -0.421484       -11.4692
  21   2.0000      -0.388627       -10.5751
  22   2.0000      -0.373658       -10.1677
  23   2.0000      -0.364727        -9.9247
  24   2.0000      -0.354995        -9.6599
  25   2.0000      -0.340137        -9.2556
  26   2.0000      -0.322613        -8.7787
  27   2.0000      -0.304279        -8.2798
  28   2.0000      -0.299162        -8.1406
  29   2.0000      -0.297089        -8.0842
  30   2.0000      -0.274835        -7.4786
  31   2.0000      -0.233997        -6.3674
  32   0.0000      -0.016858        -0.4587
  33   0.0000       0.061194         1.6652
  34   0.0000       0.091510         2.4901
  35   0.0000       0.103937         2.8283
  36   0.0000       0.117372         3.1939

MULLIKEN ATOMIC CHARGES
-----------------------
   0 C :   -0.503254
   1 C :   -0.203799
   2 C :   -0.286610
   3 C :   -0.349585
   4 C :    0.354913
   5 O :   -0.412725
   6 O :   -0.175605
   7 C :   -0.291678
   8 H :    0.169942
   9 H :    0.145021
  10 H :    0.146233
  11 H :    0.143103
  12 H :    0.142765
  13 H :    0.151425
  14 H :    0.157914
  15 H :    0.178388
  16 H :    0.160316
  17 H :    0.159734
  18 H :    0.150216
  19 H :    0.163286
Sum of atomic charges:    0.0000000

LOEWDIN ATOMIC CHARGES
----------------------
   0 C :   -0.423902
   1 C :   -0.310698
   2 C :   -0.288810
   3 C :   -0.230572
   4 C :    0.346746
   5 O :   -0.422502
   6 O :   -0.605845
   7 C :   -0.044592
   8 H :    0.157149
   9 H :    0.149310
  10 H :    0.152616
  11 H :    0.157045
  12 H :    0.153514
  13 H :    0.156623
  14 H :    0.165690
  15 H :    0.178108
  16 H :    0.180420
  17 H :    0.175875
  18 H :    0.175993
  19 H :    0.177831

  Mayer bond orders larger than 0.100000
B(  0-C ,  1-C ) :   0.8944 B(  0-C ,  8-H ) :   0.9718 B(  0-C ,  9-H ) :   0.9839
B(  0-C , 10-H ) :   0.9679 B(  1-C ,  2-C ) :   0.9034 B(  1-C , 11-H ) :   0.9638
B(  1-C , 12-H ) :   0.9597 B(  2-C ,  3-C ) :   0.8757 B(  2-C , 13-H ) :   0.9810
B(  2-C , 14-H ) :   0.9723 B(  3-C ,  4-C ) :   0.9484 B(  3-C , 15-H ) :   1.0043
B(  3-C , 16-H ) :   0.9443 B(  4-C ,  5-O ) :   1.8341 B(  4-C ,  6-O ) :   1.0423
B(  6-O ,  7-C ) :   0.8520 B(  7-C , 17-H ) :   0.9630 B(  7-C , 18-H ) :   0.9691
B(  7-C , 19-H ) :   0.9630

Dispersion correction           -0.005414413
FINAL SINGLE POINT ENERGY      -386.230941818461

DIPOLE MOMENT
-------------

Method             : SCF
Type of density    : Electron Density
Multiplicity       :   1
Irrep              :   0
Energy             :  -386.2375225549300239 Eh
Relativity type    :
Basis              : AO
                                X                 Y                 Z
Electronic contribution:      6.766119251       0.611882089       2.071886861
Nuclear contribution   :     -6.719887886      -0.170512198      -2.768210046
                        -----------------------------------------
Total Dipole Moment    :      0.046231365       0.441369891      -0.696323186
                        -----------------------------------------
Magnitude (a.u.)       :      0.825718293
Magnitude (Debye)      :      2.098809105

Rotational constants in cm-1:             0.115376             0.039555             0.037539
Rotational constants in MHz :          3458.882586          1185.828496          1125.387824

                             ****ORCA TERMINATED NORMALLY****
TOTAL RUN TIME: 0 days 0 hours 0 minutes 29 seconds 666 msec
