                         Program Version 6.0.0  -   RELEASE  -
|  1> ! r2scan-3c def2/J RI DEFGRID2 scfconv6 printgap
|  2> %output
|  3>     printlevel normal
|  4> end
|  5> %cpcm
|  6>     smd true
|  7>     smdsolvent "water"
|  8> end
|  9> * xyz 0 1
| 10> C -2.7272148074 -0.79410952 0.3756586397
| 11> C -1.8847669925 -0.3147665447 -0.801440354
| 12> C -1.2667594544 1.0664237845 -0.5785395308
| 13> C -0.3190710668 1.1223037199 0.6272068462
| 14> C 0.7889840629 0.1111573723 0.4996206862
| 15> O 0.9805733377 -0.8143179902 1.2613384071
| 16> O 1.5533272525 0.3453156063 -0.5615486927
| 17> C 2.6379390252 -0.5516389318 -0.8061378276
| 18> H -2.1007493494 -1.0024933552 1.2396138363
| 19> H -3.4639541011 -0.0423849967 0.6485105763
| 20> H -3.250717731 -1.7101679872 0.1134930948
| 21> H -1.091760019 -1.0422987708 -0.993006664
| 22> H -2.5113992994 -0.2678969844 -1.6944726699
| 23> H -2.0627199398 1.7955517803 -0.4213770075
| 24> H -0.7103724279 1.3530370772 -1.4722635353
| 25> H -0.8543553231 0.9265343382 1.5548157101
| 26> H 0.1334763145 2.1133103186 0.6752980424
| 27> H 3.3656445811 -0.4853999584 0.0035806816
| 28> H 3.0738043943 -0.2352741246 -1.7484474055
| 29> H 2.2702667789 -1.5768549596 -0.8674642006
| 30> *
| 31>
| 32>                          ****END OF INPUT****

CARTESIAN COORDINATES (ANGSTROEM)
---------------------------------
  C     -2.727215   -0.794110    0.375659
  C     -1.884767   -0.314767   -0.801440
  C     -1.266759    1.066424   -0.578540
  C     -0.319071    1.122304    0.627207
  C      0.788984    0.111157    0.499621
  O      0.980573   -0.814318    1.261338
  O      1.553327    0.345316   -0.561549
  C      2.637939   -0.551639   -0.806138
  H     -2.100749   -1.002493    1.239614
  H     -3.463954   -0.042385    0.648511
  H     -3.250718   -1.710168    0.113493
  H     -1.091760   -1.042299   -0.993007
  H     -2.511399   -0.267897   -1.694473
  H     -2.062720    1.795552   -0.421377
  H     -0.710372    1.353037   -1.472264
  H     -0.854355    0.926534    1.554816
  H      0.133476    2.113310    0.675298
  H      3.365645   -0.485400    0.003581
  H      3.073804   -0.235274   -1.748447
  H      2.270267   -1.576855   -0.867464

 Total Charge           Charge          ....    0
 Multiplicity           Mult            ....    1
 Number of Electrons    NEL             ....   64
 Basis Dimension        Dim             ....  222

ORBITAL ENERGIES
----------------

  NO   OCC          E(Eh)            E(eV)
   0   2.0000     -19.004412      -517.1363
   1   2.0000     -18.944924      -515.5176
   2   2.0000     -10.162392      -276.5327
   3   2.0000     -10.076786      -274.2033
   4   2.0000     -10.035498      -273.0798
   5   2.0000     -10.026792      -272.8429
   6   2.0000     -10.019903      -272.6554
   7   2.0000     -10.008365      -272.3415
   8   2.0000      -1.080427       -29.3999
   9   2.0000      -0.989152       -26.9162
  10   2.0000      -0.774480       -21.0747
  11   2.0000      -0.719304       -19.5732
  12   2.0000      -0.676183       -18.3999
  13   2.0000      -0.618556       -16.8318
  14   2.0000      -0.549389       -14.9496
  15   2.0000      -0.525737       -14.3060
  16   2.0000      -0.466827       -12.7030
  17   2.0000      -0.459213       -12.4958
  18   2.0000      -0.451376       -12.2826
  19   2.0000      -0.422000       -11.4832
  20   2.0000      -0.416577       -11.3356
  21   2.0000      -0.385083       -10.4786
  22   2.0000      -0.370884       -10.0923
  23   2.0000      -0.358725        -9.7614
  24   2.0000      -0.348870        -9.4932
  25   2.0000      -0.339046        -9.2259
  26   2.0000      -0.323670        -8.8075
  27   2.0000      -0.297001        -8.0818
  28   2.0000      -0.293128        -7.9764
  29   2.0000      -0.290135        -7.8950
  30   2.0000      -0.280461        -7.6317
  31   2.0000      -0.249219        -6.7816
  32   0.0000      -0.024511        -0.6670
  33   0.0000       0.066819         1.8182
  34   0.0000       0.099303         2.7022
  35   0.0000       0.112957         3.0737
  36   0.0000       0.122106         3.3227

MULLIKEN ATOMIC CHARGES
-----------------------
   0 C :   -0.531331
   1 C :   -0.223821
   2 C :   -0.289171
   3 C :   -0.366921
   4 C :    0.394948
   5 O :   -0.499344
   6 O :   -0.188808
   7 C :   -0.327550
   8 H :    0.163819
   9 H :    0.159552
  10 H :    0.157425
  11 H :    0.151234
  12 H :    0.155344
  13 H :    0.169209
  14 H :    0.162971
  15 H :    0.188189
  16 H :    0.189547
  17 H :    0.178544
  18 H :    0.178273
  19 H :    0.177891
Sum of atomic charges:    0.0000000

LOEWDIN ATOMIC CHARGES
----------------------
   0 C :   -0.430882
   1 C :   -0.312962
   2 C :   -0.286279
   3 C :   -0.228713
   4 C :    0.356470
   5 O :   -0.484331
   6 O :   -0.606268
   7 C :   -0.042241
   8 H :    0.153701
   9 H :    0.154358
  10 H :    0.154530
  11 H :    0.157778
  12 H :    0.157803
  13 H :    0.163765
  14 H :    0.166784
  15 H :    0.181931
  16 H :    0.191696
  17 H :    0.181838
  18 H :    0.188229
  19 H :    0.182796

  Mayer bond orders larger than 0.100000
B(  0-C ,  1-C ) :   0.8898 B(  0-C ,  8-H ) :   0.9742 B(  0-C ,  9-H ) :   0.9790
B(  0-C , 10-H ) :   0.9667 B(  1-C ,  2-C ) :   0.8960 B(  1-C , 11-H ) :   0.9654
B(  1-C , 12-H ) :   0.9578 B(  2-C ,  3-C ) :   0.8652 B(  2-C , 13-H ) :   0.9762
B(  2-C , 14-H ) :   0.9739 B(  3-C ,  4-C ) :   0.9465 B(  3-C , 15-H ) :   0.9989
B(  3-C , 16-H ) :   0.9348 B(  4-C ,  5-O ) :   1.7655 B(  4-C ,  6-O ) :   1.0699
B(  6-O ,  7-C ) :   0.8319 B(  7-C , 17-H ) :   0.9574 B(  7-C , 18-H ) :   0.9593
B(  7-C , 19-H ) :   0.9580

Dispersion correction           -0.005414413
FINAL SINGLE POINT ENERGY      -386.236037990507

DIPOLE MOMENT
-------------

Method             : SCF
Type of density    : Electron Density
Multiplicity       :   1
Irrep              :   0
Energy             :  -386.2426187269763318 Eh
Relativity type    :
Basis              : AO
                                X                 Y                 Z
Electronic contribution:      6.751291572       0.871246614       1.793306136
Nuclear contribution   :     -6.719887886      -0.170512198      -2.768210046
                        -----------------------------------------
Total Dipole Moment    :      0.031403686       0.700734416      -0.974903911
                        -----------------------------------------
Magnitude (a.u.)       :      1.201021461
Magnitude (Debye)      :      3.052753947

Rotational constants in cm-1:             0.115376             0.039555             0.037539
Rotational constants in MHz :          3458.882586          1185.828496          1125.387824

                             ****ORCA TERMINATED NORMALLY****
TOTAL RUN TIME: 0 days 0 hours 0 minutes 35 seconds 30 msec
