                         Program Version 6.0.0  -   RELEASE  -
|  1> ! pbe def2-sv(p) def2/J RI DEFGRID1 loosescf d4 GCP(DFT/SV(P)) printgap
|  2> %output
|  3>     printlevel normal
|  4> end
|  5> * xyz 0 1
|  6> C 2.9952834056 -0.7512753643 -0.1468633227
|  7> C 1.5457587645 -0.4119331039 0.1809784705
|  8> C 1.1940892749 1.007952977 -0.2581486358
|  9> C -0.200749297 1.4697625879 0.1678907871
| 10> C -1.3460788513 0.7507546621 -0.5285195521
| 11> Cl -1.7479705168 -0.8243171386 0.248799218
| 12> H 3.2291168035 -1.7667108348 0.1634755807
| 13> H 3.6722970251 -0.0708393481 0.364894886
| 14> H 3.1722851196 -0.669993319 -1.2170172548
| 15> H 0.8904968654 -1.1285552178 -0.31556043
| 16> H 1.3846962561 -0.5078994913 1.2573225856
| 17> H 1.2801312917 1.0796891798 -1.344527208
| 18> H 1.9238629538 1.6947333168 0.1764481449
| 19> H -0.298044656 2.5295433809 -0.0771422561
| 20> H -0.310004591 1.366864391 1.2487061696
| 21> H -2.2642591731 1.3325342529 -0.4747055917
| 22> H -1.1069219427 0.5246564396 -1.5660997606
| 23> *
| 24>
| 25>                          ****END OF INPUT****

CARTESIAN COORDINATES (ANGSTROEM)
---------------------------------
  C      2.995283   -0.751275   -0.146863
  C      1.545759   -0.411933    0.180978
  C      1.194089    1.007953   -0.258149
  C     -0.200749    1.469763    0.167891
  C     -1.346079    0.750755   -0.528520
  Cl    -1.747971   -0.824317    0.248799
  H      3.229117   -1.766711    0.163476
  H      3.672297   -0.070839    0.364895
  H      3.172285   -0.669993   -1.217017
  H      0.890497   -1.128555   -0.315560
  H      1.384696   -0.507899    1.257323
  H      1.280131    1.079689   -1.344527
  H      1.923863    1.694733    0.176448
  H     -0.298045    2.529543   -0.077142
  H     -0.310005    1.366864    1.248706
  H     -2.264259    1.332534   -0.474706
  H     -1.106922    0.524656   -1.566100

 Total Charge           Charge          ....    0
 Multiplicity           Mult            ....    1
 Number of Electrons    NEL             ....   58
 Basis Dimension        Dim             ....  110

ORBITAL ENERGIES
----------------

  NO   OCC          E(Eh)            E(eV)
   0   2.0000    -100.616142     -2737.9044
   1   2.0000      -9.939954      -270.4799
   2   2.0000      -9.895783      -269.2779
   3   2.0000      -9.886291      -269.0197
   4   2.0000      -9.877278      -268.7744
   5   2.0000      -9.869777      -268.5703
   6   2.0000      -9.151744      -249.0316
   7   2.0000      -6.983286      -190.0249
   8   2.0000      -6.971438      -189.7025
   9   2.0000      -6.971342      -189.6998
  10   2.0000      -0.775286       -21.0966
  11   2.0000      -0.716496       -19.4968
  12   2.0000      -0.666842       -18.1457
  13   2.0000      -0.598698       -16.2914
  14   2.0000      -0.539712       -14.6863
  15   2.0000      -0.509890       -13.8748
  16   2.0000      -0.433173       -11.7872
  17   2.0000      -0.413305       -11.2466
  18   2.0000      -0.404794       -11.0150
  19   2.0000      -0.373765       -10.1707
  20   2.0000      -0.362123        -9.8539
  21   2.0000      -0.347556        -9.4575
  22   2.0000      -0.325649        -8.8614
  23   2.0000      -0.314532        -8.5588
  24   2.0000      -0.297449        -8.0940
  25   2.0000      -0.285436        -7.7671
  26   2.0000      -0.281103        -7.6492
  27   2.0000      -0.243636        -6.6297
  28   2.0000      -0.237398        -6.4599
  29   0.0000       0.009451         0.2572
  30   0.0000       0.036071         0.9815
  31   0.0000       0.055535         1.5112
  32   0.0000       0.060214         1.6385
  33   0.0000       0.084057         2.2873

MULLIKEN ATOMIC CHARGES
-----------------------
   0 C :   -0.260380
   1 C :   -0.198677
   2 C :   -0.186098
   3 C :   -0.129065
   4 C :   -0.173121
   5 Cl:   -0.151353
   6 H :    0.103338
   7 H :    0.093788
   8 H :    0.093796
   9 H :    0.095765
  10 H :    0.084445
  11 H :    0.080034
  12 H :    0.083579
  13 H :    0.092272
  14 H :    0.100285
  15 H :    0.137222
  16 H :    0.134168
Sum of atomic charges:    0.0000000

LOEWDIN ATOMIC CHARGES
----------------------
   0 C :   -0.340124
   1 C :   -0.244042
   2 C :   -0.226870
   3 C :   -0.247030
   4 C :   -0.269608
   5 Cl:    0.028589
   6 H :    0.119189
   7 H :    0.114263
   8 H :    0.115399
   9 H :    0.110305
  10 H :    0.114496
  11 H :    0.112418
  12 H :    0.115772
  13 H :    0.125451
  14 H :    0.122934
  15 H :    0.125245
  16 H :    0.123614

  Mayer bond orders larger than 0.100000
B(  0-C ,  1-C ) :   1.1497 B(  0-C ,  6-H ) :   0.9536 B(  0-C ,  7-H ) :   0.9545
B(  0-C ,  8-H ) :   0.9547 B(  1-C ,  2-C ) :   1.1353 B(  1-C ,  9-H ) :   0.9165
B(  1-C , 10-H ) :   0.9266 B(  2-C ,  3-C ) :   1.1298 B(  2-C , 11-H ) :   0.9214
B(  2-C , 12-H ) :   0.9215 B(  3-C ,  4-C ) :   1.0904 B(  3-C , 13-H ) :   0.9077
B(  3-C , 14-H ) :   0.9158 B(  4-C ,  5-Cl) :   1.0294 B(  4-C , 15-H ) :   0.9333
B(  4-C , 16-H ) :   0.9281

Dispersion correction           -0.013342864
FINAL SINGLE POINT ENERGY      -656.510541861360

DIPOLE MOMENT
-------------

Method             : SCF
Type of density    : Electron Density
Multiplicity       :   1
Irrep              :   0
Energy             :  -656.5682038109172254 Eh
Relativity type    :
Basis              : AO
                                X                 Y                 Z
Electronic contribution:    -13.042411970      -4.604182818       1.760511829
Nuclear contribution   :     13.204172635       5.219354432      -2.007824315
                        -----------------------------------------
Total Dipole Moment    :      0.161760665       0.615171614      -0.247312486
                        -----------------------------------------
Magnitude (a.u.)       :      0.682470580
Magnitude (Debye)      :      1.734702356

Rotational constants in cm-1:             0.148335             0.048414             0.038941
Rotational constants in MHz :          4446.983902          1451.428131          1167.423145

                             ****ORCA TERMINATED NORMALLY****
TOTAL RUN TIME: 0 days 0 hours 0 minutes 7 seconds 319 msec
