                         Program Version 6.0.0  -   RELEASE  -
|  1> ! r2scan-3c def2/J RI DEFGRID2 scfconv6 printgap
|  2> %output
|  3>     printlevel normal
|  4> end
|  5> * xyz 0 1
|  6> C -3.3664189137 -0.5557886118 -0.4007046729
|  7> C -2.6150005946 -0.0517026143 0.8265780155
|  8> C -1.1044675676 -0.2760633288 0.7419321113
|  9> C -0.4506024631 0.5759577178 -0.3426698355
| 10> C 1.0493298388 0.4606347042 -0.4070764324
| 11> O 1.7496579951 1.189407256 -1.0837994133
| 12> O 1.5268510341 -0.5203187103 0.3443440973
| 13> C 2.9382110883 -0.751750882 0.3657146187
| 14> H -4.4385597798 -0.458134493 -0.2496035331
| 15> H -3.099049754 0.0130755379 -1.287124384
| 16> H -3.1401967631 -1.6042197906 -0.5804666973
| 17> H -2.8155356335 1.0126436418 0.9642005819
| 18> H -2.9895544565 -0.5754550101 1.7080271796
| 19> H -0.9030167769 -1.3299676853 0.5455883933
| 20> H -0.653685698 -0.0283350125 1.70438008
| 21> H -0.6873898676 1.6332197662 -0.2038901902
| 22> H -0.8225816262 0.2946275198 -1.3304644693
| 23> H 3.4644371345 0.1210903122 -0.0225063732
| 24> H 3.1574238881 -1.6224565451 -0.251333243
| 25> H 3.2087324659 -0.9424194809 1.4011827494
| 26> *
| 27>
| 28>                          ****END OF INPUT****

CARTESIAN COORDINATES (ANGSTROEM)
---------------------------------
  C     -3.366419   -0.555789   -0.400705
  C     -2.615001   -0.051703    0.826578
  C     -1.104468   -0.276063    0.741932
  C     -0.450602    0.575958   -0.342670
  C      1.049330    0.460635   -0.407076
  O      1.749658    1.189407   -1.083799
  O      1.526851   -0.520319    0.344344
  C      2.938211   -0.751751    0.365715
  H     -4.438560   -0.458134   -0.249604
  H     -3.099050    0.013076   -1.287124
  H     -3.140197   -1.604220   -0.580467
  H     -2.815536    1.012644    0.964201
  H     -2.989554   -0.575455    1.708027
  H     -0.903017   -1.329968    0.545588
  H     -0.653686   -0.028335    1.704380
  H     -0.687390    1.633220   -0.203890
  H     -0.822582    0.294628   -1.330464
  H      3.464437    0.121090   -0.022506
  H      3.157424   -1.622457   -0.251333
  H      3.208732   -0.942419    1.401183

 Total Charge           Charge          ....    0
 Multiplicity           Mult            ....    1
 Number of Electrons    NEL             ....   64
 Basis Dimension        Dim             ....  222

ORBITAL ENERGIES
----------------

  NO   OCC          E(Eh)            E(eV)
   0   2.0000     -19.000963      -517.0425
   1   2.0000     -18.925256      -514.9824
   2   2.0000     -10.153432      -276.2889
   3   2.0000     -10.086237      -274.4605
   4   2.0000     -10.043148      -273.2879
   5   2.0000     -10.030480      -272.9432
   6   2.0000     -10.029496      -272.9165
   7   2.0000     -10.019899      -272.6553
   8   2.0000      -1.073984       -29.2246
   9   2.0000      -0.973842       -26.4996
  10   2.0000      -0.780062       -21.2266
  11   2.0000      -0.727719       -19.8022
  12   2.0000      -0.683344       -18.5947
  13   2.0000      -0.627215       -17.0674
  14   2.0000      -0.548814       -14.9340
  15   2.0000      -0.535870       -14.5818
  16   2.0000      -0.472734       -12.8638
  17   2.0000      -0.464257       -12.6331
  18   2.0000      -0.437180       -11.8963
  19   2.0000      -0.431555       -11.7432
  20   2.0000      -0.411290       -11.1918
  21   2.0000      -0.396114       -10.7788
  22   2.0000      -0.375235       -10.2107
  23   2.0000      -0.370343       -10.0775
  24   2.0000      -0.351174        -9.5559
  25   2.0000      -0.333824        -9.0838
  26   2.0000      -0.318987        -8.6801
  27   2.0000      -0.310050        -8.4369
  28   2.0000      -0.303186        -8.2501
  29   2.0000      -0.298934        -8.1344
  30   2.0000      -0.270283        -7.3548
  31   2.0000      -0.233267        -6.3475
  32   0.0000      -0.012986        -0.3534
  33   0.0000       0.061905         1.6845
  34   0.0000       0.093839         2.5535
  35   0.0000       0.098326         2.6756
  36   0.0000       0.114443         3.1142

MULLIKEN ATOMIC CHARGES
-----------------------
   0 C :   -0.495268
   1 C :   -0.204291
   2 C :   -0.274962
   3 C :   -0.348766
   4 C :    0.359412
   5 O :   -0.426362
   6 O :   -0.161806
   7 C :   -0.303513
   8 H :    0.148854
   9 H :    0.147711
  10 H :    0.145987
  11 H :    0.133069
  12 H :    0.144325
  13 H :    0.151431
  14 H :    0.150685
  15 H :    0.172060
  16 H :    0.175655
  17 H :    0.187415
  18 H :    0.149835
  19 H :    0.148528
Sum of atomic charges:   -0.0000000

LOEWDIN ATOMIC CHARGES
----------------------
   0 C :   -0.425436
   1 C :   -0.316069
   2 C :   -0.291621
   3 C :   -0.226009
   4 C :    0.361837
   5 O :   -0.442682
   6 O :   -0.610576
   7 C :   -0.042914
   8 H :    0.152109
   9 H :    0.148322
  10 H :    0.150793
  11 H :    0.152125
  12 H :    0.153450
  13 H :    0.164249
  14 H :    0.163854
  15 H :    0.183824
  16 H :    0.184799
  17 H :    0.192413
  18 H :    0.172950
  19 H :    0.174582

  Mayer bond orders larger than 0.100000
B(  0-C ,  1-C ) :   0.8860 B(  0-C ,  8-H ) :   0.9690 B(  0-C ,  9-H ) :   0.9843
B(  0-C , 10-H ) :   0.9805 B(  1-C ,  2-C ) :   0.8770 B(  1-C , 11-H ) :   0.9841
B(  1-C , 12-H ) :   0.9708 B(  2-C ,  3-C ) :   0.9046 B(  2-C , 13-H ) :   0.9778
B(  2-C , 14-H ) :   0.9704 B(  3-C ,  4-C ) :   1.0405 B(  3-C , 15-H ) :   0.9579
B(  3-C , 16-H ) :   0.9332 B(  4-C ,  5-O ) :   1.8598 B(  4-C ,  6-O ) :   1.0796
B(  6-O ,  7-C ) :   0.8355 B(  7-C , 17-H ) :   0.9683 B(  7-C , 18-H ) :   0.9602
B(  7-C , 19-H ) :   0.9688

Dispersion correction           -0.005058325
FINAL SINGLE POINT ENERGY      -386.227397530937

DIPOLE MOMENT
-------------

Method             : SCF
Type of density    : Electron Density
Multiplicity       :   1
Irrep              :   0
Energy             :  -386.2345156345305099 Eh
Relativity type    :
Basis              : AO
                                X                 Y                 Z
Electronic contribution:      8.822896181       2.617862863      -1.666762126
Nuclear contribution   :     -9.069435821      -3.260838514       2.238749683
                        -----------------------------------------
Total Dipole Moment    :     -0.246539639      -0.642975650       0.571987557
                        -----------------------------------------
Magnitude (a.u.)       :      0.895192296
Magnitude (Debye)      :      2.275397987

Rotational constants in cm-1:             0.153766             0.030307             0.027211
Rotational constants in MHz :          4609.796544           908.585518           815.777996

                             ****ORCA TERMINATED NORMALLY****
TOTAL RUN TIME: 0 days 0 hours 0 minutes 25 seconds 14 msec
