                         Program Version 6.0.0  -   RELEASE  -
|  1> ! r2scan-3c def2/J RI DEFGRID2 scfconv6 printgap
|  2> %output
|  3>     printlevel normal
|  4> end
|  5> %cpcm
|  6>     smd true
|  7>     smdsolvent "water"
|  8> end
|  9> * xyz 0 1
| 10> C -3.3664189137 -0.5557886118 -0.4007046729
| 11> C -2.6150005946 -0.0517026143 0.8265780155
| 12> C -1.1044675676 -0.2760633288 0.7419321113
| 13> C -0.4506024631 0.5759577178 -0.3426698355
| 14> C 1.0493298388 0.4606347042 -0.4070764324
| 15> O 1.7496579951 1.189407256 -1.0837994133
| 16> O 1.5268510341 -0.5203187103 0.3443440973
| 17> C 2.9382110883 -0.751750882 0.3657146187
| 18> H -4.4385597798 -0.458134493 -0.2496035331
| 19> H -3.099049754 0.0130755379 -1.287124384
| 20> H -3.1401967631 -1.6042197906 -0.5804666973
| 21> H -2.8155356335 1.0126436418 0.9642005819
| 22> H -2.9895544565 -0.5754550101 1.7080271796
| 23> H -0.9030167769 -1.3299676853 0.5455883933
| 24> H -0.653685698 -0.0283350125 1.70438008
| 25> H -0.6873898676 1.6332197662 -0.2038901902
| 26> H -0.8225816262 0.2946275198 -1.3304644693
| 27> H 3.4644371345 0.1210903122 -0.0225063732
| 28> H 3.1574238881 -1.6224565451 -0.251333243
| 29> H 3.2087324659 -0.9424194809 1.4011827494
| 30> *
| 31>
| 32>                          ****END OF INPUT****

CARTESIAN COORDINATES (ANGSTROEM)
---------------------------------
  C     -3.366419   -0.555789   -0.400705
  C     -2.615001   -0.051703    0.826578
  C     -1.104468   -0.276063    0.741932
  C     -0.450602    0.575958   -0.342670
  C      1.049330    0.460635   -0.407076
  O      1.749658    1.189407   -1.083799
  O      1.526851   -0.520319    0.344344
  C      2.938211   -0.751751    0.365715
  H     -4.438560   -0.458134   -0.249604
  H     -3.099050    0.013076   -1.287124
  H     -3.140197   -1.604220   -0.580467
  H     -2.815536    1.012644    0.964201
  H     -2.989554   -0.575455    1.708027
  H     -0.903017   -1.329968    0.545588
  H     -0.653686   -0.028335    1.704380
  H     -0.687390    1.633220   -0.203890
  H     -0.822582    0.294628   -1.330464
  H      3.464437    0.121090   -0.022506
  H      3.157424   -1.622457   -0.251333
  H      3.208732   -0.942419    1.401183

 Total Charge           Charge          ....    0
 Multiplicity           Mult            ....    1
 Number of Electrons    NEL             ....   64
 Basis Dimension        Dim             ....  222

ORBITAL ENERGIES
----------------

  NO   OCC          E(Eh)            E(eV)
   0   2.0000     -19.005334      -517.1614
   1   2.0000     -18.940484      -515.3968
   2   2.0000     -10.163021      -276.5499
   3   2.0000     -10.075535      -274.1692
   4   2.0000     -10.035890      -273.0904
   5   2.0000     -10.021226      -272.6914
   6   2.0000     -10.018011      -272.6039
   7   2.0000     -10.007788      -272.3258
   8   2.0000      -1.079707       -29.3803
   9   2.0000      -0.987174       -26.8624
  10   2.0000      -0.771850       -21.0031
  11   2.0000      -0.720757       -19.6128
  12   2.0000      -0.675348       -18.3772
  13   2.0000      -0.618693       -16.8355
  14   2.0000      -0.541009       -14.7216
  15   2.0000      -0.531138       -14.4530
  16   2.0000      -0.470342       -12.7986
  17   2.0000      -0.461892       -12.5687
  18   2.0000      -0.449553       -12.2330
  19   2.0000      -0.422773       -11.5042
  20   2.0000      -0.405884       -11.0447
  21   2.0000      -0.387401       -10.5417
  22   2.0000      -0.369602       -10.0574
  23   2.0000      -0.364755        -9.9255
  24   2.0000      -0.344928        -9.3860
  25   2.0000      -0.326964        -8.8972
  26   2.0000      -0.319278        -8.6880
  27   2.0000      -0.302392        -8.2285
  28   2.0000      -0.293150        -7.9770
  29   2.0000      -0.289129        -7.8676
  30   2.0000      -0.276869        -7.5340
  31   2.0000      -0.247884        -6.7453
  32   0.0000      -0.019737        -0.5371
  33   0.0000       0.068914         1.8753
  34   0.0000       0.104727         2.8498
  35   0.0000       0.106614         2.9011
  36   0.0000       0.124332         3.3832

MULLIKEN ATOMIC CHARGES
-----------------------
   0 C :   -0.530969
   1 C :   -0.226573
   2 C :   -0.286566
   3 C :   -0.360411
   4 C :    0.399740
   5 O :   -0.516336
   6 O :   -0.176220
   7 C :   -0.321429
   8 H :    0.157414
   9 H :    0.160550
  10 H :    0.155941
  11 H :    0.144937
  12 H :    0.152999
  13 H :    0.158807
  14 H :    0.160349
  15 H :    0.189783
  16 H :    0.201165
  17 H :    0.183177
  18 H :    0.178069
  19 H :    0.175573
Sum of atomic charges:   -0.0000000

LOEWDIN ATOMIC CHARGES
----------------------
   0 C :   -0.433179
   1 C :   -0.316146
   2 C :   -0.291478
   3 C :   -0.224322
   4 C :    0.372385
   5 O :   -0.507676
   6 O :   -0.610649
   7 C :   -0.038029
   8 H :    0.153460
   9 H :    0.152215
  10 H :    0.153325
  11 H :    0.155566
  12 H :    0.155782
  13 H :    0.165564
  14 H :    0.165731
  15 H :    0.191146
  16 H :    0.195060
  17 H :    0.191095
  18 H :    0.183765
  19 H :    0.186384

  Mayer bond orders larger than 0.100000
B(  0-C ,  1-C ) :   0.8828 B(  0-C ,  8-H ) :   0.9677 B(  0-C ,  9-H ) :   0.9802
B(  0-C , 10-H ) :   0.9776 B(  1-C ,  2-C ) :   0.8762 B(  1-C , 11-H ) :   0.9852
B(  1-C , 12-H ) :   0.9705 B(  2-C ,  3-C ) :   0.8964 B(  2-C , 13-H ) :   0.9761
B(  2-C , 14-H ) :   0.9706 B(  3-C ,  4-C ) :   1.0406 B(  3-C , 15-H ) :   0.9502
B(  3-C , 16-H ) :   0.9199 B(  4-C ,  5-O ) :   1.7892 B(  4-C ,  6-O ) :   1.1096
B(  6-O ,  7-C ) :   0.8213 B(  7-C , 17-H ) :   0.9647 B(  7-C , 18-H ) :   0.9517
B(  7-C , 19-H ) :   0.9589

Dispersion correction           -0.005058325
FINAL SINGLE POINT ENERGY      -386.232221150214

DIPOLE MOMENT
-------------

Method             : SCF
Type of density    : Electron Density
Multiplicity       :   1
Irrep              :   0
Energy             :  -386.2393392538076569 Eh
Relativity type    :
Basis              : AO
                                X                 Y                 Z
Electronic contribution:      8.708038770       2.390056466      -1.471592685
Nuclear contribution   :     -9.069435821      -3.260838514       2.238749683
                        -----------------------------------------
Total Dipole Moment    :     -0.361397050      -0.870782048       0.767156998
                        -----------------------------------------
Magnitude (a.u.)       :      1.215483057
Magnitude (Debye)      :      3.089512404

Rotational constants in cm-1:             0.153766             0.030307             0.027211
Rotational constants in MHz :          4609.796544           908.585518           815.777996

                             ****ORCA TERMINATED NORMALLY****
TOTAL RUN TIME: 0 days 0 hours 0 minutes 32 seconds 640 msec
