                         Program Version 6.0.0  -   RELEASE  -
|  1> ! r2scan-3c def2/J RI DEFGRID2 scfconv6 printgap
|  2> %output
|  3>     printlevel normal
|  4> end
|  5> * xyz 0 1
|  6> C 1.9838618952 -0.6686745979 -0.1886006141
|  7> C 1.0762672495 0.2463856011 0.6250642591
|  8> C 0.0271150309 0.9585251032 -0.2293527594
|  9> C -1.1041325027 0.0347900959 -0.6812383738
| 10> N -1.8242556784 -0.4963948541 0.4691674389
| 11> H 2.7369084455 -1.1187205121 0.4535806886
| 12> H 1.4130925837 -1.4683881197 -0.6524159252
| 13> H 2.4903066794 -0.1069491553 -0.9710526121
| 14> H 0.5607508271 -0.3350405007 1.3898224984
| 15> H 1.6902146066 0.9988829173 1.1246711714
| 16> H -0.408470854 1.7758615267 0.35092571
| 17> H 0.5017804054 1.3910880689 -1.1123529767
| 18> H -0.6940234267 -0.8147443526 -1.2326455137
| 19> H -1.7577845797 0.5956019291 -1.3734126167
| 20> H -2.5814044605 -1.0927984826 0.156392912
| 21> H -2.2323031487 0.2687259673 0.9966163344
| 22> *
| 23>
| 24>                          ****END OF INPUT****

CARTESIAN COORDINATES (ANGSTROEM)
---------------------------------
  C      1.983862   -0.668675   -0.188601
  C      1.076267    0.246386    0.625064
  C      0.027115    0.958525   -0.229353
  C     -1.104133    0.034790   -0.681238
  N     -1.824256   -0.496395    0.469167
  H      2.736908   -1.118721    0.453581
  H      1.413093   -1.468388   -0.652416
  H      2.490307   -0.106949   -0.971053
  H      0.560751   -0.335041    1.389822
  H      1.690215    0.998883    1.124671
  H     -0.408471    1.775862    0.350926
  H      0.501780    1.391088   -1.112353
  H     -0.694023   -0.814744   -1.232646
  H     -1.757785    0.595602   -1.373413
  H     -2.581404   -1.092798    0.156393
  H     -2.232303    0.268726    0.996616

 Total Charge           Charge          ....    0
 Multiplicity           Mult            ....    1
 Number of Electrons    NEL             ....   42
 Basis Dimension        Dim             ....  155

ORBITAL ENERGIES
----------------

  NO   OCC          E(Eh)            E(eV)
   0   2.0000     -14.134674      -384.6240
   1   2.0000     -10.047410      -273.4039
   2   2.0000     -10.020144      -272.6620
   3   2.0000     -10.013350      -272.4771
   4   2.0000     -10.008950      -272.3574
   5   2.0000      -0.846730       -23.0407
   6   2.0000      -0.745503       -20.2862
   7   2.0000      -0.667603       -18.1664
   8   2.0000      -0.591628       -16.0990
   9   2.0000      -0.527252       -14.3473
  10   2.0000      -0.459660       -12.5080
  11   2.0000      -0.429788       -11.6951
  12   2.0000      -0.407938       -11.1006
  13   2.0000      -0.396709       -10.7950
  14   2.0000      -0.357726        -9.7342
  15   2.0000      -0.344064        -9.3624
  16   2.0000      -0.331993        -9.0340
  17   2.0000      -0.295488        -8.0406
  18   2.0000      -0.291914        -7.9434
  19   2.0000      -0.283170        -7.7055
  20   2.0000      -0.203844        -5.5469
  21   0.0000       0.074474         2.0265
  22   0.0000       0.110802         3.0151
  23   0.0000       0.119981         3.2648
  24   0.0000       0.123843         3.3699
  25   0.0000       0.132262         3.5990

MULLIKEN ATOMIC CHARGES
-----------------------
   0 C :   -0.495835
   1 C :   -0.241598
   2 C :   -0.222572
   3 C :   -0.224875
   4 N :   -0.566196
   5 H :    0.145115
   6 H :    0.145948
   7 H :    0.140471
   8 H :    0.166775
   9 H :    0.136917
  10 H :    0.133754
  11 H :    0.136057
  12 H :    0.145533
  13 H :    0.123934
  14 H :    0.238491
  15 H :    0.238082
Sum of atomic charges:   -0.0000000

LOEWDIN ATOMIC CHARGES
----------------------
   0 C :   -0.425229
   1 C :   -0.318711
   2 C :   -0.289147
   3 C :   -0.076632
   4 N :   -0.750563
   5 H :    0.150809
   6 H :    0.148172
   7 H :    0.147407
   8 H :    0.166888
   9 H :    0.149054
  10 H :    0.153917
  11 H :    0.156567
  12 H :    0.169170
  13 H :    0.147769
  14 H :    0.235884
  15 H :    0.234645

  Mayer bond orders larger than 0.100000
B(  0-C ,  1-C ) :   0.9021 B(  0-C ,  5-H ) :   0.9707 B(  0-C ,  6-H ) :   0.9842
B(  0-C ,  7-H ) :   0.9843 B(  1-C ,  2-C ) :   0.8947 B(  1-C ,  8-H ) :   0.9709
B(  1-C ,  9-H ) :   0.9662 B(  2-C ,  3-C ) :   0.9510 B(  2-C , 10-H ) :   0.9685
B(  2-C , 11-H ) :   0.9747 B(  3-C ,  4-N ) :   0.9066 B(  3-C , 12-H ) :   0.9956
B(  3-C , 13-H ) :   0.9531 B(  4-N , 14-H ) :   0.9184 B(  4-N , 15-H ) :   0.9201

Dispersion correction           -0.003532566
FINAL SINGLE POINT ENERGY      -213.722430288555

DIPOLE MOMENT
-------------

Method             : SCF
Type of density    : Electron Density
Multiplicity       :   1
Irrep              :   0
Energy             :  -213.7295032414310185 Eh
Relativity type    :
Basis              : AO
                                X                 Y                 Z
Electronic contribution:     -1.965878482       0.142839346       0.610738955
Nuclear contribution   :      1.602795640       0.085023818      -0.813515876
                        -----------------------------------------
Total Dipole Moment    :     -0.363082842       0.227863164      -0.202776921
                        -----------------------------------------
Magnitude (a.u.)       :      0.474203808
Magnitude (Debye)      :      1.205330290

Rotational constants in cm-1:             0.292715             0.092773             0.088519
Rotational constants in MHz :          8775.370754          2781.254541          2653.719032

                             ****ORCA TERMINATED NORMALLY****
TOTAL RUN TIME: 0 days 0 hours 0 minutes 17 seconds 707 msec
