                         Program Version 6.0.0  -   RELEASE  -
|  1> ! r2scan-3c def2/J RI DEFGRID2 scfconv6 printgap
|  2> %output
|  3>     printlevel normal
|  4> end
|  5> %cpcm
|  6>     smd true
|  7>     smdsolvent "water"
|  8> end
|  9> * xyz 0 1
| 10> C 1.9838618952 -0.6686745979 -0.1886006141
| 11> C 1.0762672495 0.2463856011 0.6250642591
| 12> C 0.0271150309 0.9585251032 -0.2293527594
| 13> C -1.1041325027 0.0347900959 -0.6812383738
| 14> N -1.8242556784 -0.4963948541 0.4691674389
| 15> H 2.7369084455 -1.1187205121 0.4535806886
| 16> H 1.4130925837 -1.4683881197 -0.6524159252
| 17> H 2.4903066794 -0.1069491553 -0.9710526121
| 18> H 0.5607508271 -0.3350405007 1.3898224984
| 19> H 1.6902146066 0.9988829173 1.1246711714
| 20> H -0.408470854 1.7758615267 0.35092571
| 21> H 0.5017804054 1.3910880689 -1.1123529767
| 22> H -0.6940234267 -0.8147443526 -1.2326455137
| 23> H -1.7577845797 0.5956019291 -1.3734126167
| 24> H -2.5814044605 -1.0927984826 0.156392912
| 25> H -2.2323031487 0.2687259673 0.9966163344
| 26> *
| 27>
| 28>                          ****END OF INPUT****

CARTESIAN COORDINATES (ANGSTROEM)
---------------------------------
  C      1.983862   -0.668675   -0.188601
  C      1.076267    0.246386    0.625064
  C      0.027115    0.958525   -0.229353
  C     -1.104133    0.034790   -0.681238
  N     -1.824256   -0.496395    0.469167
  H      2.736908   -1.118721    0.453581
  H      1.413093   -1.468388   -0.652416
  H      2.490307   -0.106949   -0.971053
  H      0.560751   -0.335041    1.389822
  H      1.690215    0.998883    1.124671
  H     -0.408471    1.775862    0.350926
  H      0.501780    1.391088   -1.112353
  H     -0.694023   -0.814744   -1.232646
  H     -1.757785    0.595602   -1.373413
  H     -2.581404   -1.092798    0.156393
  H     -2.232303    0.268726    0.996616

 Total Charge           Charge          ....    0
 Multiplicity           Mult            ....    1
 Number of Electrons    NEL             ....   42
 Basis Dimension        Dim             ....  155

ORBITAL ENERGIES
----------------

  NO   OCC          E(Eh)            E(eV)
   0   2.0000     -14.126339      -384.3972
   1   2.0000     -10.040084      -273.2046
   2   2.0000     -10.013245      -272.4742
   3   2.0000     -10.011865      -272.4367
   4   2.0000     -10.005607      -272.2664
   5   2.0000      -0.839122       -22.8337
   6   2.0000      -0.741675       -20.1820
   7   2.0000      -0.662592       -18.0300
   8   2.0000      -0.586819       -15.9682
   9   2.0000      -0.522673       -14.2227
  10   2.0000      -0.451574       -12.2880
  11   2.0000      -0.424984       -11.5644
  12   2.0000      -0.401000       -10.9118
  13   2.0000      -0.392983       -10.6936
  14   2.0000      -0.353234        -9.6120
  15   2.0000      -0.338708        -9.2167
  16   2.0000      -0.326454        -8.8833
  17   2.0000      -0.292673        -7.9640
  18   2.0000      -0.287236        -7.8161
  19   2.0000      -0.278626        -7.5818
  20   2.0000      -0.201759        -5.4901
  21   0.0000       0.084641         2.3032
  22   0.0000       0.119016         3.2386
  23   0.0000       0.123997         3.3741
  24   0.0000       0.131561         3.5800
  25   0.0000       0.137777         3.7491

MULLIKEN ATOMIC CHARGES
-----------------------
   0 C :   -0.531785
   1 C :   -0.258577
   2 C :   -0.226742
   3 C :   -0.246278
   4 N :   -0.649410
   5 H :    0.154474
   6 H :    0.157990
   7 H :    0.153901
   8 H :    0.151792
   9 H :    0.147937
  10 H :    0.149398
  11 H :    0.146741
  12 H :    0.159190
  13 H :    0.132247
  14 H :    0.279491
  15 H :    0.279631
Sum of atomic charges:   -0.0000000

LOEWDIN ATOMIC CHARGES
----------------------
   0 C :   -0.433941
   1 C :   -0.323000
   2 C :   -0.292390
   3 C :   -0.078074
   4 N :   -0.769712
   5 H :    0.152222
   6 H :    0.150945
   7 H :    0.151797
   8 H :    0.159298
   9 H :    0.151954
  10 H :    0.158753
  11 H :    0.159813
  12 H :    0.171950
  13 H :    0.151860
  14 H :    0.244737
  15 H :    0.243787

  Mayer bond orders larger than 0.100000
B(  0-C ,  1-C ) :   0.9001 B(  0-C ,  5-H ) :   0.9685 B(  0-C ,  6-H ) :   0.9799
B(  0-C ,  7-H ) :   0.9807 B(  1-C ,  2-C ) :   0.8837 B(  1-C ,  8-H ) :   0.9776
B(  1-C ,  9-H ) :   0.9661 B(  2-C ,  3-C ) :   0.9343 B(  2-C , 10-H ) :   0.9663
B(  2-C , 11-H ) :   0.9727 B(  3-C ,  4-N ) :   0.9213 B(  3-C , 12-H ) :   0.9950
B(  3-C , 13-H ) :   0.9581 B(  4-N , 14-H ) :   0.9022 B(  4-N , 15-H ) :   0.9043

Dispersion correction           -0.003532566
FINAL SINGLE POINT ENERGY      -213.726173527615

DIPOLE MOMENT
-------------

Method             : SCF
Type of density    : Electron Density
Multiplicity       :   1
Irrep              :   0
Energy             :  -213.7332464804913172 Eh
Relativity type    :
Basis              : AO
                                X                 Y                 Z
Electronic contribution:     -2.075356460       0.266506771       0.487896237
Nuclear contribution   :      1.602795640       0.085023818      -0.813515876
                        -----------------------------------------
Total Dipole Moment    :     -0.472560820       0.351530588      -0.325619639
                        -----------------------------------------
Magnitude (a.u.)       :      0.672990069
Magnitude (Debye)      :      1.710604811

Rotational constants in cm-1:             0.292715             0.092773             0.088519
Rotational constants in MHz :          8775.370754          2781.254541          2653.719032

                             ****ORCA TERMINATED NORMALLY****
TOTAL RUN TIME: 0 days 0 hours 0 minutes 21 seconds 499 msec
