                         Program Version 6.0.0  -   RELEASE  -
|  1> ! r2scan-3c def2/J RI DEFGRID2 scfconv6 printgap
|  2> %output
|  3>     printlevel normal
|  4> end
|  5> * xyz 0 1
|  6> C -3.2714957201 -1.1717037251 0.2872757196
|  7> C -1.7956063413 -0.8219774745 0.4347768763
|  8> C -1.4480358664 0.4351185836 -0.361925079
|  9> C -0.0036193944 0.848514259 -0.2571307796
| 10> O 0.3840901755 1.9961871477 -0.3685700141
| 11> O 0.8156693376 -0.1697943111 -0.0506874943
| 12> C 2.2219506394 0.1139091925 0.0412912889
| 13> C 2.9548199227 -1.1946397083 0.263932805
| 14> H -3.5168535492 -1.3607034559 -0.7547674838
| 15> H -3.5068935423 -2.0620962322 0.8635758368
| 16> H -3.8950279542 -0.355750549 0.6444202683
| 17> H -1.1821972015 -1.6516792457 0.083393516
| 18> H -1.5614600189 -0.6563071361 1.4877320951
| 19> H -2.057209816 1.2838174673 -0.0464841946
| 20> H -1.6494436167 0.2648320212 -1.4231365344
| 21> H 2.5370329027 0.6053779623 -0.8851422034
| 22> H 2.3794303808 0.8150698248 0.8674437435
| 23> H 2.6113945268 -1.6618551156 1.1819819389
| 24> H 2.7685977468 -1.871087242 -0.5648733875
| 25> H 4.0199171951 -1.0013144074 0.3364389797
| 26> *
| 27>
| 28>                          ****END OF INPUT****

CARTESIAN COORDINATES (ANGSTROEM)
---------------------------------
  C     -3.271496   -1.171704    0.287276
  C     -1.795606   -0.821977    0.434777
  C     -1.448036    0.435119   -0.361925
  C     -0.003619    0.848514   -0.257131
  O      0.384090    1.996187   -0.368570
  O      0.815669   -0.169794   -0.050687
  C      2.221951    0.113909    0.041291
  C      2.954820   -1.194640    0.263933
  H     -3.516854   -1.360703   -0.754767
  H     -3.506894   -2.062096    0.863576
  H     -3.895028   -0.355751    0.644420
  H     -1.182197   -1.651679    0.083394
  H     -1.561460   -0.656307    1.487732
  H     -2.057210    1.283817   -0.046484
  H     -1.649444    0.264832   -1.423137
  H      2.537033    0.605378   -0.885142
  H      2.379430    0.815070    0.867444
  H      2.611395   -1.661855    1.181982
  H      2.768598   -1.871087   -0.564873
  H      4.019917   -1.001314    0.336439

 Total Charge           Charge          ....    0
 Multiplicity           Mult            ....    1
 Number of Electrons    NEL             ....   64
 Basis Dimension        Dim             ....  222

ORBITAL ENERGIES
----------------

  NO   OCC          E(Eh)            E(eV)
   0   2.0000     -18.997343      -516.9440
   1   2.0000     -18.923956      -514.9470
   2   2.0000     -10.150168      -276.2001
   3   2.0000     -10.092128      -274.6208
   4   2.0000     -10.041951      -273.2554
   5   2.0000     -10.033454      -273.0242
   6   2.0000     -10.032744      -273.0048
   7   2.0000     -10.021958      -272.7113
   8   2.0000      -1.072442       -29.1826
   9   2.0000      -0.971212       -26.4280
  10   2.0000      -0.775557       -21.1040
  11   2.0000      -0.742239       -20.1973
  12   2.0000      -0.680801       -18.5255
  13   2.0000      -0.613381       -16.6909
  14   2.0000      -0.570124       -15.5139
  15   2.0000      -0.535589       -14.5741
  16   2.0000      -0.469294       -12.7701
  17   2.0000      -0.459380       -12.5004
  18   2.0000      -0.444185       -12.0869
  19   2.0000      -0.427853       -11.6425
  20   2.0000      -0.398273       -10.8376
  21   2.0000      -0.385749       -10.4968
  22   2.0000      -0.376390       -10.2421
  23   2.0000      -0.361802        -9.8451
  24   2.0000      -0.358216        -9.7475
  25   2.0000      -0.337629        -9.1873
  26   2.0000      -0.326316        -8.8795
  27   2.0000      -0.321697        -8.7538
  28   2.0000      -0.310695        -8.4544
  29   2.0000      -0.302847        -8.2409
  30   2.0000      -0.270784        -7.3684
  31   2.0000      -0.229379        -6.2417
  32   0.0000      -0.012357        -0.3362
  33   0.0000       0.072789         1.9807
  34   0.0000       0.094806         2.5798
  35   0.0000       0.104987         2.8569
  36   0.0000       0.118568         3.2264

MULLIKEN ATOMIC CHARGES
-----------------------
   0 C :   -0.467049
   1 C :   -0.234196
   2 C :   -0.338493
   3 C :    0.355655
   4 O :   -0.417675
   5 O :   -0.143785
   6 C :   -0.145447
   7 C :   -0.445105
   8 H :    0.141949
   9 H :    0.148885
  10 H :    0.143126
  11 H :    0.154300
  12 H :    0.142425
  13 H :    0.169193
  14 H :    0.169453
  15 H :    0.157392
  16 H :    0.157089
  17 H :    0.152338
  18 H :    0.152126
  19 H :    0.147823
Sum of atomic charges:    0.0000000

LOEWDIN ATOMIC CHARGES
----------------------
   0 C :   -0.421877
   1 C :   -0.296654
   2 C :   -0.229127
   3 C :    0.358488
   4 O :   -0.429490
   5 O :   -0.606231
   6 C :    0.035980
   7 C :   -0.387056
   8 H :    0.150399
   9 H :    0.152159
  10 H :    0.150801
  11 H :    0.164963
  12 H :    0.156679
  13 H :    0.180644
  14 H :    0.182372
  15 H :    0.179838
  16 H :    0.179817
  17 H :    0.159310
  18 H :    0.159147
  19 H :    0.159839

  Mayer bond orders larger than 0.100000
B(  0-C ,  1-C ) :   0.8891 B(  0-C ,  8-H ) :   0.9855 B(  0-C ,  9-H ) :   0.9742
B(  0-C , 10-H ) :   0.9799 B(  1-C ,  2-C ) :   0.9237 B(  1-C , 11-H ) :   0.9628
B(  1-C , 12-H ) :   0.9653 B(  2-C ,  3-C ) :   1.0070 B(  2-C , 13-H ) :   0.9824
B(  2-C , 14-H ) :   0.9364 B(  3-C ,  4-O ) :   1.8317 B(  3-C ,  5-O ) :   1.0776
B(  5-O ,  6-C ) :   0.8070 B(  6-C ,  7-C ) :   0.9415 B(  6-C , 15-H ) :   0.9545
B(  6-C , 16-H ) :   0.9522 B(  7-C , 17-H ) :   0.9719 B(  7-C , 18-H ) :   0.9725
B(  7-C , 19-H ) :   0.9681

Dispersion correction           -0.004898396
FINAL SINGLE POINT ENERGY      -386.235139947712

DIPOLE MOMENT
-------------

Method             : SCF
Type of density    : Electron Density
Multiplicity       :   1
Irrep              :   0
Energy             :  -386.2418959260690485 Eh
Relativity type    :
Basis              : AO
                                X                 Y                 Z
Electronic contribution:      2.945072107       6.217264954      -1.541448140
Nuclear contribution   :     -2.846163393      -7.151484421       1.673648123
                        -----------------------------------------
Total Dipole Moment    :      0.098908713      -0.934219467       0.132199982
                        -----------------------------------------
Magnitude (a.u.)       :      0.948696886
Magnitude (Debye)      :      2.411395847

Rotational constants in cm-1:             0.111089             0.035355             0.027710
Rotational constants in MHz :          3330.365253          1059.906401           830.720319

                             ****ORCA TERMINATED NORMALLY****
TOTAL RUN TIME: 0 days 0 hours 0 minutes 30 seconds 236 msec
