                         Program Version 6.0.0  -   RELEASE  -
|  1> ! r2scan-3c def2/J RI DEFGRID2 scfconv6 printgap
|  2> %output
|  3>     printlevel normal
|  4> end
|  5> %cpcm
|  6>     smd true
|  7>     smdsolvent "water"
|  8> end
|  9> * xyz 0 1
| 10> C -3.2714957201 -1.1717037251 0.2872757196
| 11> C -1.7956063413 -0.8219774745 0.4347768763
| 12> C -1.4480358664 0.4351185836 -0.361925079
| 13> C -0.0036193944 0.848514259 -0.2571307796
| 14> O 0.3840901755 1.9961871477 -0.3685700141
| 15> O 0.8156693376 -0.1697943111 -0.0506874943
| 16> C 2.2219506394 0.1139091925 0.0412912889
| 17> C 2.9548199227 -1.1946397083 0.263932805
| 18> H -3.5168535492 -1.3607034559 -0.7547674838
| 19> H -3.5068935423 -2.0620962322 0.8635758368
| 20> H -3.8950279542 -0.355750549 0.6444202683
| 21> H -1.1821972015 -1.6516792457 0.083393516
| 22> H -1.5614600189 -0.6563071361 1.4877320951
| 23> H -2.057209816 1.2838174673 -0.0464841946
| 24> H -1.6494436167 0.2648320212 -1.4231365344
| 25> H 2.5370329027 0.6053779623 -0.8851422034
| 26> H 2.3794303808 0.8150698248 0.8674437435
| 27> H 2.6113945268 -1.6618551156 1.1819819389
| 28> H 2.7685977468 -1.871087242 -0.5648733875
| 29> H 4.0199171951 -1.0013144074 0.3364389797
| 30> *
| 31>
| 32>                          ****END OF INPUT****

CARTESIAN COORDINATES (ANGSTROEM)
---------------------------------
  C     -3.271496   -1.171704    0.287276
  C     -1.795606   -0.821977    0.434777
  C     -1.448036    0.435119   -0.361925
  C     -0.003619    0.848514   -0.257131
  O      0.384090    1.996187   -0.368570
  O      0.815669   -0.169794   -0.050687
  C      2.221951    0.113909    0.041291
  C      2.954820   -1.194640    0.263933
  H     -3.516854   -1.360703   -0.754767
  H     -3.506894   -2.062096    0.863576
  H     -3.895028   -0.355751    0.644420
  H     -1.182197   -1.651679    0.083394
  H     -1.561460   -0.656307    1.487732
  H     -2.057210    1.283817   -0.046484
  H     -1.649444    0.264832   -1.423137
  H      2.537033    0.605378   -0.885142
  H      2.379430    0.815070    0.867444
  H      2.611395   -1.661855    1.181982
  H      2.768598   -1.871087   -0.564873
  H      4.019917   -1.001314    0.336439

 Total Charge           Charge          ....    0
 Multiplicity           Mult            ....    1
 Number of Electrons    NEL             ....   64
 Basis Dimension        Dim             ....  222

ORBITAL ENERGIES
----------------

  NO   OCC          E(Eh)            E(eV)
   0   2.0000     -19.003074      -517.0999
   1   2.0000     -18.941492      -515.4242
   2   2.0000     -10.161881      -276.5188
   3   2.0000     -10.084422      -274.4111
   4   2.0000     -10.035907      -273.0909
   5   2.0000     -10.024845      -272.7899
   6   2.0000     -10.018912      -272.6285
   7   2.0000     -10.010516      -272.4000
   8   2.0000      -1.080043       -29.3895
   9   2.0000      -0.986496       -26.8439
  10   2.0000      -0.769659       -20.9435
  11   2.0000      -0.733523       -19.9602
  12   2.0000      -0.673663       -18.3313
  13   2.0000      -0.606276       -16.4976
  14   2.0000      -0.562775       -15.3139
  15   2.0000      -0.533616       -14.5204
  16   2.0000      -0.468209       -12.7406
  17   2.0000      -0.458718       -12.4823
  18   2.0000      -0.448787       -12.2121
  19   2.0000      -0.430387       -11.7114
  20   2.0000      -0.394147       -10.7253
  21   2.0000      -0.380157       -10.3446
  22   2.0000      -0.367129        -9.9901
  23   2.0000      -0.353865        -9.6292
  24   2.0000      -0.348897        -9.4940
  25   2.0000      -0.331727        -9.0267
  26   2.0000      -0.323363        -8.7992
  27   2.0000      -0.319448        -8.6926
  28   2.0000      -0.305214        -8.3053
  29   2.0000      -0.294826        -8.0226
  30   2.0000      -0.277806        -7.5595
  31   2.0000      -0.246795        -6.7156
  32   0.0000      -0.021131        -0.5750
  33   0.0000       0.077538         2.1099
  34   0.0000       0.104153         2.8341
  35   0.0000       0.113786         3.0963
  36   0.0000       0.126110         3.4316

MULLIKEN ATOMIC CHARGES
-----------------------
   0 C :   -0.515052
   1 C :   -0.236578
   2 C :   -0.353753
   3 C :    0.407931
   4 O :   -0.511053
   5 O :   -0.158306
   6 C :   -0.149527
   7 C :   -0.493656
   8 H :    0.156606
   9 H :    0.159599
  10 H :    0.156280
  11 H :    0.156426
  12 H :    0.157332
  13 H :    0.180482
  14 H :    0.200338
  15 H :    0.171368
  16 H :    0.171801
  17 H :    0.164968
  18 H :    0.165410
  19 H :    0.169383
Sum of atomic charges:    0.0000000

LOEWDIN ATOMIC CHARGES
----------------------
   0 C :   -0.427451
   1 C :   -0.294931
   2 C :   -0.227239
   3 C :    0.369955
   4 O :   -0.495755
   5 O :   -0.605478
   6 C :    0.037977
   7 C :   -0.389797
   8 H :    0.154388
   9 H :    0.155008
  10 H :    0.154346
  11 H :    0.165120
  12 H :    0.160364
  13 H :    0.185444
  14 H :    0.194880
  15 H :    0.184539
  16 H :    0.184729
  17 H :    0.162683
  18 H :    0.162735
  19 H :    0.168486

  Mayer bond orders larger than 0.100000
B(  0-C ,  1-C ) :   0.8833 B(  0-C ,  8-H ) :   0.9830 B(  0-C ,  9-H ) :   0.9708
B(  0-C , 10-H ) :   0.9779 B(  1-C ,  2-C ) :   0.9131 B(  1-C , 11-H ) :   0.9610
B(  1-C , 12-H ) :   0.9663 B(  2-C ,  3-C ) :   1.0074 B(  2-C , 13-H ) :   0.9813
B(  2-C , 14-H ) :   0.9186 B(  3-C ,  4-O ) :   1.7585 B(  3-C ,  5-O ) :   1.1111
B(  5-O ,  6-C ) :   0.7919 B(  6-C ,  7-C ) :   0.9449 B(  6-C , 15-H ) :   0.9469
B(  6-C , 16-H ) :   0.9445 B(  7-C , 17-H ) :   0.9698 B(  7-C , 18-H ) :   0.9703
B(  7-C , 19-H ) :   0.9617

Dispersion correction           -0.004898396
FINAL SINGLE POINT ENERGY      -386.241142555179

DIPOLE MOMENT
-------------

Method             : SCF
Type of density    : Electron Density
Multiplicity       :   1
Irrep              :   0
Energy             :  -386.2478985335357606 Eh
Relativity type    :
Basis              : AO
                                X                 Y                 Z
Electronic contribution:      2.927601829       5.888904879      -1.518003410
Nuclear contribution   :     -2.846163393      -7.151484421       1.673648123
                        -----------------------------------------
Total Dipole Moment    :      0.081438436      -1.262579542       0.155644713
                        -----------------------------------------
Magnitude (a.u.)       :      1.274740991
Magnitude (Debye)      :      3.240134101

Rotational constants in cm-1:             0.111089             0.035355             0.027710
Rotational constants in MHz :          3330.365253          1059.906401           830.720319

                             ****ORCA TERMINATED NORMALLY****
TOTAL RUN TIME: 0 days 0 hours 0 minutes 36 seconds 764 msec
