                         Program Version 6.0.0  -   RELEASE  -
|  1> ! pbe def2-sv(p) def2/J RI DEFGRID1 loosescf d4 GCP(DFT/SV(P)) printgap
|  2> %output
|  3>     printlevel normal
|  4> end
|  5> * xyz 0 1
|  6> C -2.5464914177 -0.6354520042 1.0637697158
|  7> C -2.0814759141 -0.8017211927 -0.3778200775
|  8> C -1.3838935725 0.4612168698 -0.8991418766
|  9> C -0.108957274 0.7289302962 -0.1415718134
| 10> O 0.1008847461 1.7102855817 0.5432977994
| 11> O 0.7762598975 -0.2419050051 -0.3111452758
| 12> C 2.0454703762 -0.1303926361 0.3528809088
| 13> C 3.0252725212 -1.0642444311 -0.3317145656
| 14> H -3.0281235659 -1.5440179928 1.4151523288
| 15> H -1.7037921636 -0.4161616894 1.7171472353
| 16> H -3.2551017744 0.1855617156 1.1437979697
| 17> H -2.9413567614 -1.0104414637 -1.0150275235
| 18> H -1.3896503722 -1.6419817576 -0.449825269
| 19> H -2.0322574292 1.3304779634 -0.7905299493
| 20> H -1.1266272808 0.3247996711 -1.9499073205
| 21> H 2.3719603029 0.9137604301 0.3052496643
| 22> H 1.9044455754 -0.398800595 1.4049904081
| 23> H 3.145101813 -0.782148245 -1.3736693431
| 24> H 3.9864658028 -1.0047289807 0.1679709663
| 25> H 2.6587425693 -2.08529289 -0.2851011361
| 26> *
| 27>
| 28>                          ****END OF INPUT****

CARTESIAN COORDINATES (ANGSTROEM)
---------------------------------
  C     -2.546491   -0.635452    1.063770
  C     -2.081476   -0.801721   -0.377820
  C     -1.383894    0.461217   -0.899142
  C     -0.108957    0.728930   -0.141572
  O      0.100885    1.710286    0.543298
  O      0.776260   -0.241905   -0.311145
  C      2.045470   -0.130393    0.352881
  C      3.025273   -1.064244   -0.331715
  H     -3.028124   -1.544018    1.415152
  H     -1.703792   -0.416162    1.717147
  H     -3.255102    0.185562    1.143798
  H     -2.941357   -1.010441   -1.015028
  H     -1.389650   -1.641982   -0.449825
  H     -2.032257    1.330478   -0.790530
  H     -1.126627    0.324800   -1.949907
  H      2.371960    0.913760    0.305250
  H      1.904446   -0.398801    1.404990
  H      3.145102   -0.782148   -1.373669
  H      3.986466   -1.004729    0.167971
  H      2.658743   -2.085293   -0.285101

 Total Charge           Charge          ....    0
 Multiplicity           Mult            ....    1
 Number of Electrons    NEL             ....   64
 Basis Dimension        Dim             ....  136

ORBITAL ENERGIES
----------------

  NO   OCC          E(Eh)            E(eV)
   0   2.0000     -18.797514      -511.5064
   1   2.0000     -18.728784      -509.6361
   2   2.0000     -10.003233      -272.2018
   3   2.0000      -9.947087      -270.6740
   4   2.0000      -9.895888      -269.2808
   5   2.0000      -9.893723      -269.2219
   6   2.0000      -9.889876      -269.1172
   7   2.0000      -9.877374      -268.7770
   8   2.0000      -1.004412       -27.3314
   9   2.0000      -0.905614       -24.6430
  10   2.0000      -0.730726       -19.8841
  11   2.0000      -0.698529       -19.0079
  12   2.0000      -0.636458       -17.3189
  13   2.0000      -0.582168       -15.8416
  14   2.0000      -0.535350       -14.5676
  15   2.0000      -0.506991       -13.7959
  16   2.0000      -0.453601       -12.3431
  17   2.0000      -0.431447       -11.7403
  18   2.0000      -0.417142       -11.3510
  19   2.0000      -0.401954       -10.9377
  20   2.0000      -0.391848       -10.6627
  21   2.0000      -0.365620        -9.9490
  22   2.0000      -0.361073        -9.8253
  23   2.0000      -0.354292        -9.6408
  24   2.0000      -0.342396        -9.3171
  25   2.0000      -0.323292        -8.7972
  26   2.0000      -0.312650        -8.5076
  27   2.0000      -0.299546        -8.1511
  28   2.0000      -0.297223        -8.0879
  29   2.0000      -0.293430        -7.9846
  30   2.0000      -0.255178        -6.9437
  31   2.0000      -0.211691        -5.7604
  32   0.0000      -0.018788        -0.5112
  33   0.0000       0.035708         0.9717
  34   0.0000       0.051823         1.4102
  35   0.0000       0.070629         1.9219
  36   0.0000       0.080263         2.1841

MULLIKEN ATOMIC CHARGES
-----------------------
   0 C :   -0.286796
   1 C :   -0.216154
   2 C :   -0.100269
   3 C :    0.082183
   4 O :   -0.207373
   5 O :   -0.244971
   6 C :   -0.027935
   7 C :   -0.276049
   8 H :    0.105919
   9 H :    0.118633
  10 H :    0.103286
  11 H :    0.094184
  12 H :    0.101933
  13 H :    0.096767
  14 H :    0.104895
  15 H :    0.110542
  16 H :    0.101971
  17 H :    0.114426
  18 H :    0.111152
  19 H :    0.113658
Sum of atomic charges:   -0.0000000

LOEWDIN ATOMIC CHARGES
----------------------
   0 C :   -0.342281
   1 C :   -0.229672
   2 C :   -0.242434
   3 C :    0.031808
   4 O :   -0.168988
   5 O :   -0.071014
   6 C :   -0.109398
   7 C :   -0.350839
   8 H :    0.120595
   9 H :    0.120835
  10 H :    0.120559
  11 H :    0.118554
  12 H :    0.119127
  13 H :    0.131854
  14 H :    0.136612
  15 H :    0.117885
  16 H :    0.114760
  17 H :    0.126267
  18 H :    0.130086
  19 H :    0.125685

  Mayer bond orders larger than 0.100000
B(  0-C ,  1-C ) :   1.1521 B(  0-C ,  8-H ) :   0.9515 B(  0-C ,  9-H ) :   0.9482
B(  0-C , 10-H ) :   0.9535 B(  1-C ,  2-C ) :   1.1100 B(  1-C , 11-H ) :   0.9273
B(  1-C , 12-H ) :   0.9244 B(  2-C ,  3-C ) :   1.0345 B(  2-C , 13-H ) :   0.9104
B(  2-C , 14-H ) :   0.8943 B(  3-C ,  4-O ) :   2.0613 B(  3-C ,  5-O ) :   1.1894
B(  5-O ,  6-C ) :   0.9141 B(  6-C ,  7-C ) :   1.1528 B(  6-C , 15-H ) :   0.9228
B(  6-C , 16-H ) :   0.9352 B(  7-C , 17-H ) :   0.9519 B(  7-C , 18-H ) :   0.9446
B(  7-C , 19-H ) :   0.9487

Dispersion correction           -0.015018451
FINAL SINGLE POINT ENERGY      -385.457239459990

DIPOLE MOMENT
-------------

Method             : SCF
Type of density    : Electron Density
Multiplicity       :   1
Irrep              :   0
Energy             :  -385.5321800997228934 Eh
Relativity type    :
Basis              : AO
                                X                 Y                 Z
Electronic contribution:      1.511820944       4.985265427      -0.572638017
Nuclear contribution   :     -1.309989931      -5.728225757       0.275743434
                        -----------------------------------------
Total Dipole Moment    :      0.201831013      -0.742960330      -0.296894583
                        -----------------------------------------
Magnitude (a.u.)       :      0.825149806
Magnitude (Debye)      :      2.097364128

Rotational constants in cm-1:             0.114671             0.037073             0.033399
Rotational constants in MHz :          3437.764417          1111.406157          1001.273234

                             ****ORCA TERMINATED NORMALLY****
TOTAL RUN TIME: 0 days 0 hours 0 minutes 10 seconds 765 msec
