                         Program Version 6.0.0  -   RELEASE  -
|  1> ! pbe def2-sv(p) def2/J RI DEFGRID1 loosescf d4 GCP(DFT/SV(P)) printgap
|  2> %output
|  3>     printlevel normal
|  4> end
|  5> * xyz 0 1
|  6> C -3.8884134155 0.3720723066 0.0236715021
|  7> C -2.6864621126 -0.5287646502 0.28105033
|  8> C -1.3752251623 0.179068932 -0.0504152138
|  9> C -0.1629514983 -0.7138404845 0.2228345533
| 10> C 1.1145425297 -0.0565414094 -0.2286205274
| 11> O 1.2616421413 0.5369947992 -1.2763105966
| 12> O 2.0845605132 -0.2163452829 0.6649341106
| 13> C 3.3758461804 0.3312769829 0.3799281655
| 14> H -3.8309105192 1.2686507638 0.6364582308
| 15> H -3.9202852535 0.6739207857 -1.0205961603
| 16> H -4.8127351271 -0.1483495819 0.2606327594
| 17> H -2.6771669717 -0.8311271712 1.3299562315
| 18> H -2.7731169671 -1.431531986 -0.3264902018
| 19> H -1.2928672449 1.0907377081 0.5451177458
| 20> H -1.3644800706 0.4708931614 -1.1025944973
| 21> H -0.2665531797 -1.6426425444 -0.3432556264
| 22> H -0.0759141572 -0.9584175602 1.2808195096
| 23> H 3.4366469717 1.3372134947 0.7950090634
| 24> H 3.5333024944 0.3710615659 -0.6984509133
| 25> H 4.0972363815 -0.3243058366 0.8592469156
| 26> *
| 27>
| 28>                          ****END OF INPUT****

CARTESIAN COORDINATES (ANGSTROEM)
---------------------------------
  C     -3.888413    0.372072    0.023672
  C     -2.686462   -0.528765    0.281050
  C     -1.375225    0.179069   -0.050415
  C     -0.162951   -0.713840    0.222835
  C      1.114543   -0.056541   -0.228621
  O      1.261642    0.536995   -1.276311
  O      2.084561   -0.216345    0.664934
  C      3.375846    0.331277    0.379928
  H     -3.830911    1.268651    0.636458
  H     -3.920285    0.673921   -1.020596
  H     -4.812735   -0.148350    0.260633
  H     -2.677167   -0.831127    1.329956
  H     -2.773117   -1.431532   -0.326490
  H     -1.292867    1.090738    0.545118
  H     -1.364480    0.470893   -1.102594
  H     -0.266553   -1.642643   -0.343256
  H     -0.075914   -0.958418    1.280820
  H      3.436647    1.337213    0.795009
  H      3.533302    0.371062   -0.698451
  H      4.097236   -0.324306    0.859247

 Total Charge           Charge          ....    0
 Multiplicity           Mult            ....    1
 Number of Electrons    NEL             ....   64
 Basis Dimension        Dim             ....  136

ORBITAL ENERGIES
----------------

  NO   OCC          E(Eh)            E(eV)
   0   2.0000     -18.798952      -511.5455
   1   2.0000     -18.731094      -509.6990
   2   2.0000     -10.004489      -272.2360
   3   2.0000      -9.940214      -270.4870
   4   2.0000      -9.896729      -269.3037
   5   2.0000      -9.887435      -269.0508
   6   2.0000      -9.885893      -269.0088
   7   2.0000      -9.874881      -268.7092
   8   2.0000      -1.004003       -27.3203
   9   2.0000      -0.908251       -24.7148
  10   2.0000      -0.729625       -19.8541
  11   2.0000      -0.686695       -18.6859
  12   2.0000      -0.646753       -17.5991
  13   2.0000      -0.576888       -15.6979
  14   2.0000      -0.521050       -14.1785
  15   2.0000      -0.502692       -13.6789
  16   2.0000      -0.444476       -12.0948
  17   2.0000      -0.440394       -11.9837
  18   2.0000      -0.426390       -11.6027
  19   2.0000      -0.410112       -11.1597
  20   2.0000      -0.388489       -10.5713
  21   2.0000      -0.373940       -10.1754
  22   2.0000      -0.370428       -10.0799
  23   2.0000      -0.348024        -9.4702
  24   2.0000      -0.335028        -9.1166
  25   2.0000      -0.312238        -8.4964
  26   2.0000      -0.302210        -8.2236
  27   2.0000      -0.296480        -8.0676
  28   2.0000      -0.287097        -7.8123
  29   2.0000      -0.285893        -7.7795
  30   2.0000      -0.256164        -6.9706
  31   2.0000      -0.218325        -5.9409
  32   0.0000      -0.018301        -0.4980
  33   0.0000       0.039579         1.0770
  34   0.0000       0.055919         1.5216
  35   0.0000       0.066811         1.8180
  36   0.0000       0.071471         1.9448

MULLIKEN ATOMIC CHARGES
-----------------------
   0 C :   -0.256644
   1 C :   -0.172851
   2 C :   -0.219116
   3 C :   -0.125935
   4 C :    0.110747
   5 O :   -0.207580
   6 O :   -0.237329
   7 C :   -0.122832
   8 H :    0.097824
   9 H :    0.099815
  10 H :    0.102002
  11 H :    0.082641
  12 H :    0.083458
  13 H :    0.087601
  14 H :    0.104645
  15 H :    0.108340
  16 H :    0.094665
  17 H :    0.120178
  18 H :    0.128564
  19 H :    0.121808
Sum of atomic charges:   -0.0000000

LOEWDIN ATOMIC CHARGES
----------------------
   0 C :   -0.338991
   1 C :   -0.233742
   2 C :   -0.221572
   3 C :   -0.245934
   4 C :    0.036526
   5 O :   -0.170941
   6 O :   -0.074657
   7 C :   -0.207152
   8 H :    0.117276
   9 H :    0.118364
  10 H :    0.118877
  11 H :    0.113580
  12 H :    0.114545
  13 H :    0.117351
  14 H :    0.123637
  15 H :    0.141853
  16 H :    0.128245
  17 H :    0.119500
  18 H :    0.122624
  19 H :    0.120614

  Mayer bond orders larger than 0.100000
B(  0-C ,  1-C ) :   1.1612 B(  0-C ,  8-H ) :   0.9544 B(  0-C ,  9-H ) :   0.9541
B(  0-C , 10-H ) :   0.9528 B(  1-C ,  2-C ) :   1.1354 B(  1-C , 11-H ) :   0.9238
B(  1-C , 12-H ) :   0.9252 B(  2-C ,  3-C ) :   1.1263 B(  2-C , 13-H ) :   0.9290
B(  2-C , 14-H ) :   0.9144 B(  3-C ,  4-C ) :   1.0146 B(  3-C , 15-H ) :   0.8843
B(  3-C , 16-H ) :   0.9082 B(  4-C ,  5-O ) :   2.0599 B(  4-C ,  6-O ) :   1.2246
B(  6-O ,  7-C ) :   0.9369 B(  7-C , 17-H ) :   0.9597 B(  7-C , 18-H ) :   0.9361
B(  7-C , 19-H ) :   0.9610

Dispersion correction           -0.014388865
FINAL SINGLE POINT ENERGY      -385.452899999779

DIPOLE MOMENT
-------------

Method             : SCF
Type of density    : Electron Density
Multiplicity       :   1
Irrep              :   0
Energy             :  -385.5281492339119040 Eh
Relativity type    :
Basis              : AO
                                X                 Y                 Z
Electronic contribution:      9.469002478      -0.139000716      -1.476601910
Nuclear contribution   :     -9.282179413      -0.111481583       2.069773955
                        -----------------------------------------
Total Dipole Moment    :      0.186823064      -0.250482299       0.593172046
                        -----------------------------------------
Magnitude (a.u.)       :      0.670445610
Magnitude (Debye)      :      1.704137309

Rotational constants in cm-1:             0.223478             0.025081             0.023818
Rotational constants in MHz :          6699.700242           751.912863           714.046297

                             ****ORCA TERMINATED NORMALLY****
TOTAL RUN TIME: 0 days 0 hours 0 minutes 10 seconds 330 msec
