                         Program Version 6.0.0  -   RELEASE  -
|  1> ! pbe def2-sv(p) def2/J RI DEFGRID1 loosescf d4 GCP(DFT/SV(P)) printgap
|  2> %output
|  3>     printlevel normal
|  4> end
|  5> * xyz 0 1
|  6> C -2.5070649707 -1.0769512829 -0.6240958341
|  7> C -2.0514997507 -0.5538423838 0.7326911277
|  8> C -1.3894511567 0.8249178601 0.6164783857
|  9> C -0.1144928602 0.7523921464 -0.1833042746
| 10> O 0.0850538687 1.3342208162 -1.2311054487
| 11> O 0.7874279094 -0.0285220812 0.3929188766
| 12> C 2.0530791169 -0.1913887487 -0.2669657271
| 13> C 2.9652393886 -0.9861211851 0.6471817219
| 14> H -2.9630783241 -2.0578051712 -0.5198637081
| 15> H -3.2347552022 -0.4020082257 -1.0685343403
| 16> H -1.6638873841 -1.1589021828 -1.3077910707
| 17> H -1.3403792735 -1.2501227279 1.1789586947
| 18> H -2.9119496973 -0.4700566628 1.3972179746
| 19> H -1.1379703502 1.1906598251 1.6125551013
| 20> H -2.0577343916 1.5322716958 0.1256289588
| 21> H 1.883253194 -0.7067578556 -1.2182164322
| 22> H 2.4591145532 0.8016458674 -0.4868448164
| 23> H 3.9297815814 -1.1154288723 0.1675971006
| 24> H 3.0995509582 -0.4597750795 1.5875228648
| 25> H 2.5317480819 -1.9608019529 0.8499714859
| 26> *
| 27>
| 28>                          ****END OF INPUT****

CARTESIAN COORDINATES (ANGSTROEM)
---------------------------------
  C     -2.507065   -1.076951   -0.624096
  C     -2.051500   -0.553842    0.732691
  C     -1.389451    0.824918    0.616478
  C     -0.114493    0.752392   -0.183304
  O      0.085054    1.334221   -1.231105
  O      0.787428   -0.028522    0.392919
  C      2.053079   -0.191389   -0.266966
  C      2.965239   -0.986121    0.647182
  H     -2.963078   -2.057805   -0.519864
  H     -3.234755   -0.402008   -1.068534
  H     -1.663887   -1.158902   -1.307791
  H     -1.340379   -1.250123    1.178959
  H     -2.911950   -0.470057    1.397218
  H     -1.137970    1.190660    1.612555
  H     -2.057734    1.532272    0.125629
  H      1.883253   -0.706758   -1.218216
  H      2.459115    0.801646   -0.486845
  H      3.929782   -1.115429    0.167597
  H      3.099551   -0.459775    1.587523
  H      2.531748   -1.960802    0.849971

 Total Charge           Charge          ....    0
 Multiplicity           Mult            ....    1
 Number of Electrons    NEL             ....   64
 Basis Dimension        Dim             ....  136

ORBITAL ENERGIES
----------------

  NO   OCC          E(Eh)            E(eV)
   0   2.0000     -18.797563      -511.5077
   1   2.0000     -18.728810      -509.6368
   2   2.0000     -10.002993      -272.1953
   3   2.0000      -9.947492      -270.6850
   4   2.0000      -9.895998      -269.2838
   5   2.0000      -9.893630      -269.2194
   6   2.0000      -9.889933      -269.1188
   7   2.0000      -9.877546      -268.7817
   8   2.0000      -1.004718       -27.3398
   9   2.0000      -0.905396       -24.6371
  10   2.0000      -0.730756       -19.8849
  11   2.0000      -0.698625       -19.0105
  12   2.0000      -0.636516       -17.3205
  13   2.0000      -0.581599       -15.8261
  14   2.0000      -0.535547       -14.5730
  15   2.0000      -0.507534       -13.8107
  16   2.0000      -0.452300       -12.3077
  17   2.0000      -0.434439       -11.8217
  18   2.0000      -0.416009       -11.3202
  19   2.0000      -0.401633       -10.9290
  20   2.0000      -0.391854       -10.6629
  21   2.0000      -0.364126        -9.9084
  22   2.0000      -0.362431        -9.8623
  23   2.0000      -0.354375        -9.6430
  24   2.0000      -0.342281        -9.3139
  25   2.0000      -0.322044        -8.7633
  26   2.0000      -0.313718        -8.5367
  27   2.0000      -0.299566        -8.1516
  28   2.0000      -0.296944        -8.0802
  29   2.0000      -0.294597        -8.0164
  30   2.0000      -0.255636        -6.9562
  31   2.0000      -0.211461        -5.7541
  32   0.0000      -0.018773        -0.5109
  33   0.0000       0.034501         0.9388
  34   0.0000       0.052031         1.4158
  35   0.0000       0.071650         1.9497
  36   0.0000       0.079166         2.1542

MULLIKEN ATOMIC CHARGES
-----------------------
   0 C :   -0.287005
   1 C :   -0.214906
   2 C :   -0.099688
   3 C :    0.081732
   4 O :   -0.209041
   5 O :   -0.244528
   6 C :   -0.028564
   7 C :   -0.272010
   8 H :    0.105986
   9 H :    0.103417
  10 H :    0.118212
  11 H :    0.102065
  12 H :    0.093879
  13 H :    0.105495
  14 H :    0.096656
  15 H :    0.102623
  16 H :    0.106612
  17 H :    0.110951
  18 H :    0.114339
  19 H :    0.113774
Sum of atomic charges:   -0.0000000

LOEWDIN ATOMIC CHARGES
----------------------
   0 C :   -0.342216
   1 C :   -0.229869
   2 C :   -0.242473
   3 C :    0.031379
   4 O :   -0.168792
   5 O :   -0.071379
   6 C :   -0.108230
   7 C :   -0.350717
   8 H :    0.120631
   9 H :    0.120582
  10 H :    0.120641
  11 H :    0.119176
  12 H :    0.118466
  13 H :    0.136973
  14 H :    0.131949
  15 H :    0.114921
  16 H :    0.116550
  17 H :    0.130207
  18 H :    0.126373
  19 H :    0.125828

  Mayer bond orders larger than 0.100000
B(  0-C ,  1-C ) :   1.1523 B(  0-C ,  8-H ) :   0.9515 B(  0-C ,  9-H ) :   0.9535
B(  0-C , 10-H ) :   0.9483 B(  1-C ,  2-C ) :   1.1092 B(  1-C , 11-H ) :   0.9241
B(  1-C , 12-H ) :   0.9272 B(  2-C ,  3-C ) :   1.0381 B(  2-C , 13-H ) :   0.8944
B(  2-C , 14-H ) :   0.9103 B(  3-C ,  4-O ) :   2.0574 B(  3-C ,  5-O ) :   1.1899
B(  5-O ,  6-C ) :   0.9145 B(  6-C ,  7-C ) :   1.1491 B(  6-C , 15-H ) :   0.9333
B(  6-C , 16-H ) :   0.9295 B(  7-C , 17-H ) :   0.9445 B(  7-C , 18-H ) :   0.9505
B(  7-C , 19-H ) :   0.9495

Dispersion correction           -0.015029399
FINAL SINGLE POINT ENERGY      -385.457450548227

DIPOLE MOMENT
-------------

Method             : SCF
Type of density    : Electron Density
Multiplicity       :   1
Irrep              :   0
Energy             :  -385.5323628569800007 Eh
Relativity type    :
Basis              : AO
                                X                 Y                 Z
Electronic contribution:      1.511844084       5.123977974      -1.573920305
Nuclear contribution   :     -1.306412391      -5.663190889       2.162430972
                        -----------------------------------------
Total Dipole Moment    :      0.205431693      -0.539212915       0.588510667
                        -----------------------------------------
Magnitude (a.u.)       :      0.824195094
Magnitude (Debye)      :      2.094937442

Rotational constants in cm-1:             0.110182             0.037945             0.033649
Rotational constants in MHz :          3303.185330          1137.553227          1008.784864

                             ****ORCA TERMINATED NORMALLY****
TOTAL RUN TIME: 0 days 0 hours 0 minutes 10 seconds 881 msec
