                         Program Version 6.0.0  -   RELEASE  -
|  1> ! r2scan-3c def2/J RI DEFGRID2 scfconv6 printgap
|  2> %output
|  3>     printlevel normal
|  4> end
|  5> * xyz 0 1
|  6> C -2.7342800761 -0.2812328206 -0.8095305418
|  7> C -1.8845917949 -0.7961926312 0.3471480608
|  8> C -1.2554844784 0.3229621234 1.1784870871
|  9> C -0.3145124795 1.22760578 0.3709735054
| 10> C 0.7808437826 0.4282076718 -0.2845795971
| 11> O 0.9298302628 0.3097601237 -1.4837094814
| 12> O 1.575390654 -0.1356943376 0.616613009
| 13> C 2.6665253822 -0.947031913 0.1740510069
| 14> H -2.1107561074 0.1876341298 -1.5669304774
| 15> H -3.2677692483 -1.1043809175 -1.2782861314
| 16> H -3.462650805 0.4439727363 -0.4547446705
| 17> H -2.5081761064 -1.4023395666 1.0075716787
| 18> H -1.0975711153 -1.4428979037 -0.0493365762
| 19> H -0.6914213141 -0.1208374899 2.0003829642
| 20> H -2.0458288044 0.9444684097 1.6016087082
| 21> H 0.1493657691 1.94717481 1.0461212893
| 22> H -0.8591939988 1.7610610667 -0.4061407151
| 23> H 2.4610357005 -1.9788237391 0.4557855171
| 24> H 3.5607107275 -0.5884005993 0.6790287705
| 25> H 2.7744489005 -0.8653670839 -0.9081757459
| 26> *
| 27>
| 28>                          ****END OF INPUT****

CARTESIAN COORDINATES (ANGSTROEM)
---------------------------------
  C     -2.734280   -0.281233   -0.809531
  C     -1.884592   -0.796193    0.347148
  C     -1.255484    0.322962    1.178487
  C     -0.314512    1.227606    0.370974
  C      0.780844    0.428208   -0.284580
  O      0.929830    0.309760   -1.483709
  O      1.575391   -0.135694    0.616613
  C      2.666525   -0.947032    0.174051
  H     -2.110756    0.187634   -1.566930
  H     -3.267769   -1.104381   -1.278286
  H     -3.462651    0.443973   -0.454745
  H     -2.508176   -1.402340    1.007572
  H     -1.097571   -1.442898   -0.049337
  H     -0.691421   -0.120837    2.000383
  H     -2.045829    0.944468    1.601609
  H      0.149366    1.947175    1.046121
  H     -0.859194    1.761061   -0.406141
  H      2.461036   -1.978824    0.455786
  H      3.560711   -0.588401    0.679029
  H      2.774449   -0.865367   -0.908176

 Total Charge           Charge          ....    0
 Multiplicity           Mult            ....    1
 Number of Electrons    NEL             ....   64
 Basis Dimension        Dim             ....  222

ORBITAL ENERGIES
----------------

  NO   OCC          E(Eh)            E(eV)
   0   2.0000     -18.999733      -517.0090
   1   2.0000     -18.929144      -515.0882
   2   2.0000     -10.153508      -276.2910
   3   2.0000     -10.085777      -274.4479
   4   2.0000     -10.041188      -273.2346
   5   2.0000     -10.035403      -273.0772
   6   2.0000     -10.027577      -272.8642
   7   2.0000     -10.014069      -272.4967
   8   2.0000      -1.073336       -29.2070
   9   2.0000      -0.976583       -26.5742
  10   2.0000      -0.780211       -21.2306
  11   2.0000      -0.724367       -19.7110
  12   2.0000      -0.682949       -18.5840
  13   2.0000      -0.624232       -16.9862
  14   2.0000      -0.554400       -15.0860
  15   2.0000      -0.528364       -14.3775
  16   2.0000      -0.468512       -12.7489
  17   2.0000      -0.457179       -12.4405
  18   2.0000      -0.443803       -12.0765
  19   2.0000      -0.427481       -11.6323
  20   2.0000      -0.421365       -11.4659
  21   2.0000      -0.387242       -10.5374
  22   2.0000      -0.376460       -10.2440
  23   2.0000      -0.363978        -9.9044
  24   2.0000      -0.354741        -9.6530
  25   2.0000      -0.340500        -9.2655
  26   2.0000      -0.318024        -8.6539
  27   2.0000      -0.303887        -8.2692
  28   2.0000      -0.299061        -8.1379
  29   2.0000      -0.296931        -8.0799
  30   2.0000      -0.272438        -7.4134
  31   2.0000      -0.235381        -6.4050
  32   0.0000      -0.015730        -0.4280
  33   0.0000       0.063153         1.7185
  34   0.0000       0.091605         2.4927
  35   0.0000       0.105748         2.8775
  36   0.0000       0.117986         3.2106

MULLIKEN ATOMIC CHARGES
-----------------------
   0 C :   -0.503215
   1 C :   -0.203956
   2 C :   -0.291773
   3 C :   -0.346698
   4 C :    0.380180
   5 O :   -0.428045
   6 O :   -0.185479
   7 C :   -0.302470
   8 H :    0.170973
   9 H :    0.146031
  10 H :    0.144863
  11 H :    0.142616
  12 H :    0.143631
  13 H :    0.158086
  14 H :    0.151588
  15 H :    0.159367
  16 H :    0.177074
  17 H :    0.148768
  18 H :    0.147960
  19 H :    0.190500
Sum of atomic charges:    0.0000000

LOEWDIN ATOMIC CHARGES
----------------------
   0 C :   -0.423818
   1 C :   -0.310913
   2 C :   -0.288462
   3 C :   -0.229545
   4 C :    0.351439
   5 O :   -0.438492
   6 O :   -0.603523
   7 C :   -0.046417
   8 H :    0.157680
   9 H :    0.152553
  10 H :    0.149100
  11 H :    0.153338
  12 H :    0.157250
  13 H :    0.165206
  14 H :    0.156725
  15 H :    0.180217
  16 H :    0.177911
  17 H :    0.172344
  18 H :    0.173957
  19 H :    0.193447

  Mayer bond orders larger than 0.100000
B(  0-C ,  1-C ) :   0.8937 B(  0-C ,  8-H ) :   0.9714 B(  0-C ,  9-H ) :   0.9680
B(  0-C , 10-H ) :   0.9842 B(  1-C ,  2-C ) :   0.9031 B(  1-C , 11-H ) :   0.9595
B(  1-C , 12-H ) :   0.9636 B(  2-C ,  3-C ) :   0.8730 B(  2-C , 13-H ) :   0.9741
B(  2-C , 14-H ) :   0.9806 B(  3-C ,  4-C ) :   0.9608 B(  3-C , 15-H ) :   0.9439
B(  3-C , 16-H ) :   1.0021 B(  4-C ,  5-O ) :   1.8586 B(  4-C ,  6-O ) :   1.0414
B(  6-O ,  7-C ) :   0.8398 B(  7-C , 17-H ) :   0.9621 B(  7-C , 18-H ) :   0.9667
B(  7-C , 19-H ) :   0.9693

Dispersion correction           -0.005407144
FINAL SINGLE POINT ENERGY      -386.229304865783

DIPOLE MOMENT
-------------

Method             : SCF
Type of density    : Electron Density
Multiplicity       :   1
Irrep              :   0
Energy             :  -386.2360484180384219 Eh
Relativity type    :
Basis              : AO
                                X                 Y                 Z
Electronic contribution:      6.706932861       1.900002250      -1.177979581
Nuclear contribution   :     -6.621777767      -2.078963291       1.982514863
                        -----------------------------------------
Total Dipole Moment    :      0.085155094      -0.178961041       0.804535282
                        -----------------------------------------
Magnitude (a.u.)       :      0.828586425
Magnitude (Debye)      :      2.106099319

Rotational constants in cm-1:             0.115732             0.039480             0.037337
Rotational constants in MHz :          3469.570929          1183.594852          1119.337887

                             ****ORCA TERMINATED NORMALLY****
TOTAL RUN TIME: 0 days 0 hours 0 minutes 26 seconds 494 msec
