                         Program Version 6.0.0  -   RELEASE  -
|  1> ! r2scan-3c def2/J RI DEFGRID2 scfconv6 printgap
|  2> %output
|  3>     printlevel normal
|  4> end
|  5> %cpcm
|  6>     smd true
|  7>     smdsolvent "water"
|  8> end
|  9> * xyz 0 1
| 10> C -2.7342800761 -0.2812328206 -0.8095305418
| 11> C -1.8845917949 -0.7961926312 0.3471480608
| 12> C -1.2554844784 0.3229621234 1.1784870871
| 13> C -0.3145124795 1.22760578 0.3709735054
| 14> C 0.7808437826 0.4282076718 -0.2845795971
| 15> O 0.9298302628 0.3097601237 -1.4837094814
| 16> O 1.575390654 -0.1356943376 0.616613009
| 17> C 2.6665253822 -0.947031913 0.1740510069
| 18> H -2.1107561074 0.1876341298 -1.5669304774
| 19> H -3.2677692483 -1.1043809175 -1.2782861314
| 20> H -3.462650805 0.4439727363 -0.4547446705
| 21> H -2.5081761064 -1.4023395666 1.0075716787
| 22> H -1.0975711153 -1.4428979037 -0.0493365762
| 23> H -0.6914213141 -0.1208374899 2.0003829642
| 24> H -2.0458288044 0.9444684097 1.6016087082
| 25> H 0.1493657691 1.94717481 1.0461212893
| 26> H -0.8591939988 1.7610610667 -0.4061407151
| 27> H 2.4610357005 -1.9788237391 0.4557855171
| 28> H 3.5607107275 -0.5884005993 0.6790287705
| 29> H 2.7744489005 -0.8653670839 -0.9081757459
| 30> *
| 31>
| 32>                          ****END OF INPUT****

CARTESIAN COORDINATES (ANGSTROEM)
---------------------------------
  C     -2.734280   -0.281233   -0.809531
  C     -1.884592   -0.796193    0.347148
  C     -1.255484    0.322962    1.178487
  C     -0.314512    1.227606    0.370974
  C      0.780844    0.428208   -0.284580
  O      0.929830    0.309760   -1.483709
  O      1.575391   -0.135694    0.616613
  C      2.666525   -0.947032    0.174051
  H     -2.110756    0.187634   -1.566930
  H     -3.267769   -1.104381   -1.278286
  H     -3.462651    0.443973   -0.454745
  H     -2.508176   -1.402340    1.007572
  H     -1.097571   -1.442898   -0.049337
  H     -0.691421   -0.120837    2.000383
  H     -2.045829    0.944468    1.601609
  H      0.149366    1.947175    1.046121
  H     -0.859194    1.761061   -0.406141
  H      2.461036   -1.978824    0.455786
  H      3.560711   -0.588401    0.679029
  H      2.774449   -0.865367   -0.908176

 Total Charge           Charge          ....    0
 Multiplicity           Mult            ....    1
 Number of Electrons    NEL             ....   64
 Basis Dimension        Dim             ....  222

ORBITAL ENERGIES
----------------

  NO   OCC          E(Eh)            E(eV)
   0   2.0000     -19.004165      -517.1296
   1   2.0000     -18.943577      -515.4809
   2   2.0000     -10.162916      -276.5470
   3   2.0000     -10.075134      -274.1583
   4   2.0000     -10.035143      -273.0701
   5   2.0000     -10.026907      -272.8460
   6   2.0000     -10.019891      -272.6551
   7   2.0000     -10.008325      -272.3404
   8   2.0000      -1.079200       -29.3665
   9   2.0000      -0.989099       -26.9147
  10   2.0000      -0.774328       -21.0705
  11   2.0000      -0.719680       -19.5835
  12   2.0000      -0.676414       -18.4062
  13   2.0000      -0.618199       -16.8220
  14   2.0000      -0.548841       -14.9347
  15   2.0000      -0.525243       -14.2926
  16   2.0000      -0.466835       -12.7032
  17   2.0000      -0.458554       -12.4779
  18   2.0000      -0.450906       -12.2698
  19   2.0000      -0.422061       -11.4849
  20   2.0000      -0.416931       -11.3453
  21   2.0000      -0.384247       -10.4559
  22   2.0000      -0.374085       -10.1794
  23   2.0000      -0.358309        -9.7501
  24   2.0000      -0.349031        -9.4976
  25   2.0000      -0.338380        -9.2078
  26   2.0000      -0.319433        -8.6922
  27   2.0000      -0.297001        -8.0818
  28   2.0000      -0.293123        -7.9763
  29   2.0000      -0.290181        -7.8962
  30   2.0000      -0.277854        -7.5608
  31   2.0000      -0.249491        -6.7890
  32   0.0000      -0.022968        -0.6250
  33   0.0000       0.068680         1.8689
  34   0.0000       0.099030         2.6948
  35   0.0000       0.114442         3.1141
  36   0.0000       0.122801         3.3416

MULLIKEN ATOMIC CHARGES
-----------------------
   0 C :   -0.531086
   1 C :   -0.225006
   2 C :   -0.292271
   3 C :   -0.364792
   4 C :    0.410825
   5 O :   -0.511343
   6 O :   -0.200965
   7 C :   -0.316843
   8 H :    0.163854
   9 H :    0.157490
  10 H :    0.159692
  11 H :    0.155425
  12 H :    0.151513
  13 H :    0.163341
  14 H :    0.169340
  15 H :    0.187984
  16 H :    0.186585
  17 H :    0.176500
  18 H :    0.174587
  19 H :    0.185170
Sum of atomic charges:    0.0000000

LOEWDIN ATOMIC CHARGES
----------------------
   0 C :   -0.431025
   1 C :   -0.313182
   2 C :   -0.285950
   3 C :   -0.228069
   4 C :    0.360191
   5 O :   -0.498681
   6 O :   -0.604774
   7 C :   -0.040784
   8 H :    0.153855
   9 H :    0.154526
  10 H :    0.154337
  11 H :    0.157736
  12 H :    0.157821
  13 H :    0.166489
  14 H :    0.163827
  15 H :    0.191150
  16 H :    0.181652
  17 H :    0.183633
  18 H :    0.185286
  19 H :    0.191962

  Mayer bond orders larger than 0.100000
B(  0-C ,  1-C ) :   0.8893 B(  0-C ,  8-H ) :   0.9740 B(  0-C ,  9-H ) :   0.9668
B(  0-C , 10-H ) :   0.9793 B(  1-C ,  2-C ) :   0.8951 B(  1-C , 11-H ) :   0.9575
B(  1-C , 12-H ) :   0.9654 B(  2-C ,  3-C ) :   0.8639 B(  2-C , 13-H ) :   0.9754
B(  2-C , 14-H ) :   0.9760 B(  3-C ,  4-C ) :   0.9585 B(  3-C , 15-H ) :   0.9349
B(  3-C , 16-H ) :   0.9960 B(  4-C ,  5-O ) :   1.7900 B(  4-C ,  6-O ) :   1.0684
B(  6-O ,  7-C ) :   0.8272 B(  7-C , 17-H ) :   0.9531 B(  7-C , 18-H ) :   0.9573
B(  7-C , 19-H ) :   0.9658

Dispersion correction           -0.005407144
FINAL SINGLE POINT ENERGY      -386.233520029292

DIPOLE MOMENT
-------------

Method             : SCF
Type of density    : Electron Density
Multiplicity       :   1
Irrep              :   0
Energy             :  -386.2402635815471967 Eh
Relativity type    :
Basis              : AO
                                X                 Y                 Z
Electronic contribution:      6.715867179       1.877067245      -0.789827143
Nuclear contribution   :     -6.621777767      -2.078963291       1.982514863
                        -----------------------------------------
Total Dipole Moment    :      0.094089412      -0.201896045       1.192687720
                        -----------------------------------------
Magnitude (a.u.)       :      1.213309041
Magnitude (Debye)      :      3.083986494

Rotational constants in cm-1:             0.115732             0.039480             0.037337
Rotational constants in MHz :          3469.570929          1183.594852          1119.337887

                             ****ORCA TERMINATED NORMALLY****
TOTAL RUN TIME: 0 days 0 hours 0 minutes 34 seconds 963 msec
