                         Program Version 6.0.0  -   RELEASE  -
|  1> ! r2scan-3c def2/J RI DEFGRID2 scfconv6 printgap
|  2> %output
|  3>     printlevel normal
|  4> end
|  5> * xyz 0 1
|  6> C -2.5344942489 -1.2953028375 -0.2315808051
|  7> C -2.5517650805 0.190485995 0.106433856
|  8> C -1.2623927861 0.6238710939 0.8118983387
|  9> C -0.0808425532 0.515974401 -0.1179450967
| 10> O -0.0047215204 1.0522886637 -1.2048096104
| 11> O 0.8759669637 -0.2414955017 0.398400585
| 12> C 2.0998648776 -0.4297036668 -0.332947111
| 13> C 3.2696395732 -0.3358659564 0.6308106846
| 14> H -2.399837457 -1.8905275133 0.6683665854
| 15> H -3.4685473365 -1.5871605516 -0.7040420331
| 16> H -1.7196277707 -1.5191738211 -0.9177114163
| 17> H -3.3985250786 0.4086892898 0.757574518
| 18> H -2.6615923662 0.7745807655 -0.8092593323
| 19> H -1.0715284109 0.0096804211 1.690953127
| 20> H -1.3476068642 1.6700443923 1.1102997136
| 21> H 2.0505757497 -1.4193226125 -0.796193562
| 22> H 2.1553413186 0.3309980851 -1.1180696248
| 23> H 3.1623326627 -1.07869729 1.4157240378
| 24> H 4.1937483508 -0.5146860707 0.0909996572
| 25> H 3.3068726796 0.6508001104 1.0843108004
| 26> *
| 27>
| 28>                          ****END OF INPUT****

CARTESIAN COORDINATES (ANGSTROEM)
---------------------------------
  C     -2.534494   -1.295303   -0.231581
  C     -2.551765    0.190486    0.106434
  C     -1.262393    0.623871    0.811898
  C     -0.080843    0.515974   -0.117945
  O     -0.004722    1.052289   -1.204810
  O      0.875967   -0.241496    0.398401
  C      2.099865   -0.429704   -0.332947
  C      3.269640   -0.335866    0.630811
  H     -2.399837   -1.890528    0.668367
  H     -3.468547   -1.587161   -0.704042
  H     -1.719628   -1.519174   -0.917711
  H     -3.398525    0.408689    0.757575
  H     -2.661592    0.774581   -0.809259
  H     -1.071528    0.009680    1.690953
  H     -1.347607    1.670044    1.110300
  H      2.050576   -1.419323   -0.796194
  H      2.155341    0.330998   -1.118070
  H      3.162333   -1.078697    1.415724
  H      4.193748   -0.514686    0.091000
  H      3.306873    0.650800    1.084311

 Total Charge           Charge          ....    0
 Multiplicity           Mult            ....    1
 Number of Electrons    NEL             ....   64
 Basis Dimension        Dim             ....  222

ORBITAL ENERGIES
----------------

  NO   OCC          E(Eh)            E(eV)
   0   2.0000     -18.997046      -516.9359
   1   2.0000     -18.926155      -515.0069
   2   2.0000     -10.151115      -276.2259
   3   2.0000     -10.089977      -274.5622
   4   2.0000     -10.039890      -273.1993
   5   2.0000     -10.033560      -273.0270
   6   2.0000     -10.031903      -272.9820
   7   2.0000     -10.019089      -272.6333
   8   2.0000      -1.070901       -29.1407
   9   2.0000      -0.974343       -26.5132
  10   2.0000      -0.773060       -21.0360
  11   2.0000      -0.742270       -20.1982
  12   2.0000      -0.677568       -18.4376
  13   2.0000      -0.620267       -16.8783
  14   2.0000      -0.564766       -15.3681
  15   2.0000      -0.527112       -14.3434
  16   2.0000      -0.474083       -12.9004
  17   2.0000      -0.458993       -12.4898
  18   2.0000      -0.432115       -11.7584
  19   2.0000      -0.425947       -11.5906
  20   2.0000      -0.410831       -11.1793
  21   2.0000      -0.382563       -10.4101
  22   2.0000      -0.377149       -10.2627
  23   2.0000      -0.366070        -9.9613
  24   2.0000      -0.359242        -9.7755
  25   2.0000      -0.340653        -9.2696
  26   2.0000      -0.318016        -8.6537
  27   2.0000      -0.309160        -8.4127
  28   2.0000      -0.308730        -8.4010
  29   2.0000      -0.303658        -8.2630
  30   2.0000      -0.270143        -7.3510
  31   2.0000      -0.235196        -6.4000
  32   0.0000      -0.014200        -0.3864
  33   0.0000       0.075454         2.0532
  34   0.0000       0.096181         2.6172
  35   0.0000       0.106719         2.9040
  36   0.0000       0.119713         3.2575

MULLIKEN ATOMIC CHARGES
-----------------------
   0 C :   -0.493314
   1 C :   -0.219029
   2 C :   -0.297515
   3 C :    0.349261
   4 O :   -0.430425
   5 O :   -0.166700
   6 C :   -0.161979
   7 C :   -0.443950
   8 H :    0.146311
   9 H :    0.148493
  10 H :    0.155947
  11 H :    0.144467
  12 H :    0.161473
  13 H :    0.162766
  14 H :    0.164919
  15 H :    0.143206
  16 H :    0.184649
  17 H :    0.152935
  18 H :    0.146582
  19 H :    0.151904
Sum of atomic charges:    0.0000000

LOEWDIN ATOMIC CHARGES
----------------------
   0 C :   -0.416926
   1 C :   -0.293126
   2 C :   -0.231935
   3 C :    0.356195
   4 O :   -0.442743
   5 O :   -0.597015
   6 C :    0.030670
   7 C :   -0.386909
   8 H :    0.150599
   9 H :    0.152752
  10 H :    0.155728
  11 H :    0.152721
  12 H :    0.167305
  13 H :    0.176779
  14 H :    0.181465
  15 H :    0.174775
  16 H :    0.193971
  17 H :    0.158231
  18 H :    0.159102
  19 H :    0.158358

  Mayer bond orders larger than 0.100000
B(  0-C ,  1-C ) :   0.9046 B(  0-C ,  8-H ) :   0.9819 B(  0-C ,  9-H ) :   0.9687
B(  0-C , 10-H ) :   0.9732 B(  1-C ,  2-C ) :   0.8921 B(  1-C , 11-H ) :   0.9660
B(  1-C , 12-H ) :   0.9675 B(  2-C ,  3-C ) :   0.9452 B(  2-C , 13-H ) :   1.0019
B(  2-C , 14-H ) :   0.9356 B(  3-C ,  4-O ) :   1.8358 B(  3-C ,  5-O ) :   1.0634
B(  5-O ,  6-C ) :   0.7814 B(  6-C ,  7-C ) :   0.9494 B(  6-C , 15-H ) :   0.9481
B(  6-C , 16-H ) :   0.9670 B(  7-C , 17-H ) :   0.9703 B(  7-C , 18-H ) :   0.9672
B(  7-C , 19-H ) :   0.9738

Dispersion correction           -0.005039255
FINAL SINGLE POINT ENERGY      -386.235195400849

DIPOLE MOMENT
-------------

Method             : SCF
Type of density    : Electron Density
Multiplicity       :   1
Irrep              :   0
Energy             :  -386.2419333210788750 Eh
Relativity type    :
Basis              : AO
                                X                 Y                 Z
Electronic contribution:      1.359310076       3.456626431      -1.690550208
Nuclear contribution   :     -1.111374860      -3.895230445       2.308084088
                        -----------------------------------------
Total Dipole Moment    :      0.247935216      -0.438604014       0.617533880
                        -----------------------------------------
Magnitude (a.u.)       :      0.796990242
Magnitude (Debye)      :      2.025788202

Rotational constants in cm-1:             0.141609             0.033311             0.031703
Rotational constants in MHz :          4245.335551           998.642444           950.443911

                             ****ORCA TERMINATED NORMALLY****
TOTAL RUN TIME: 0 days 0 hours 0 minutes 31 seconds 285 msec
