                         Program Version 6.0.0  -   RELEASE  -
|  1> ! r2scan-3c def2/J RI DEFGRID2 scfconv6 printgap
|  2> %output
|  3>     printlevel normal
|  4> end
|  5> %cpcm
|  6>     smd true
|  7>     smdsolvent "water"
|  8> end
|  9> * xyz 0 1
| 10> C -2.5344942489 -1.2953028375 -0.2315808051
| 11> C -2.5517650805 0.190485995 0.106433856
| 12> C -1.2623927861 0.6238710939 0.8118983387
| 13> C -0.0808425532 0.515974401 -0.1179450967
| 14> O -0.0047215204 1.0522886637 -1.2048096104
| 15> O 0.8759669637 -0.2414955017 0.398400585
| 16> C 2.0998648776 -0.4297036668 -0.332947111
| 17> C 3.2696395732 -0.3358659564 0.6308106846
| 18> H -2.399837457 -1.8905275133 0.6683665854
| 19> H -3.4685473365 -1.5871605516 -0.7040420331
| 20> H -1.7196277707 -1.5191738211 -0.9177114163
| 21> H -3.3985250786 0.4086892898 0.757574518
| 22> H -2.6615923662 0.7745807655 -0.8092593323
| 23> H -1.0715284109 0.0096804211 1.690953127
| 24> H -1.3476068642 1.6700443923 1.1102997136
| 25> H 2.0505757497 -1.4193226125 -0.796193562
| 26> H 2.1553413186 0.3309980851 -1.1180696248
| 27> H 3.1623326627 -1.07869729 1.4157240378
| 28> H 4.1937483508 -0.5146860707 0.0909996572
| 29> H 3.3068726796 0.6508001104 1.0843108004
| 30> *
| 31>
| 32>                          ****END OF INPUT****

CARTESIAN COORDINATES (ANGSTROEM)
---------------------------------
  C     -2.534494   -1.295303   -0.231581
  C     -2.551765    0.190486    0.106434
  C     -1.262393    0.623871    0.811898
  C     -0.080843    0.515974   -0.117945
  O     -0.004722    1.052289   -1.204810
  O      0.875967   -0.241496    0.398401
  C      2.099865   -0.429704   -0.332947
  C      3.269640   -0.335866    0.630811
  H     -2.399837   -1.890528    0.668367
  H     -3.468547   -1.587161   -0.704042
  H     -1.719628   -1.519174   -0.917711
  H     -3.398525    0.408689    0.757575
  H     -2.661592    0.774581   -0.809259
  H     -1.071528    0.009680    1.690953
  H     -1.347607    1.670044    1.110300
  H      2.050576   -1.419323   -0.796194
  H      2.155341    0.330998   -1.118070
  H      3.162333   -1.078697    1.415724
  H      4.193748   -0.514686    0.091000
  H      3.306873    0.650800    1.084311

 Total Charge           Charge          ....    0
 Multiplicity           Mult            ....    1
 Number of Electrons    NEL             ....   64
 Basis Dimension        Dim             ....  222

ORBITAL ENERGIES
----------------

  NO   OCC          E(Eh)            E(eV)
   0   2.0000     -19.003155      -517.1021
   1   2.0000     -18.942496      -515.4515
   2   2.0000     -10.162324      -276.5309
   3   2.0000     -10.082348      -274.3546
   4   2.0000     -10.034909      -273.0638
   5   2.0000     -10.028030      -272.8766
   6   2.0000     -10.018573      -272.6192
   7   2.0000     -10.011546      -272.4280
   8   2.0000      -1.078624       -29.3509
   9   2.0000      -0.988567       -26.9003
  10   2.0000      -0.769313       -20.9341
  11   2.0000      -0.734903       -19.9977
  12   2.0000      -0.672116       -18.2892
  13   2.0000      -0.614092       -16.7103
  14   2.0000      -0.558675       -15.2023
  15   2.0000      -0.526238       -14.3197
  16   2.0000      -0.474707       -12.9174
  17   2.0000      -0.462772       -12.5927
  18   2.0000      -0.439092       -11.9483
  19   2.0000      -0.422404       -11.4942
  20   2.0000      -0.408152       -11.1064
  21   2.0000      -0.377637       -10.2760
  22   2.0000      -0.368970       -10.0402
  23   2.0000      -0.360742        -9.8163
  24   2.0000      -0.356457        -9.6997
  25   2.0000      -0.336153        -9.1472
  26   2.0000      -0.312358        -8.4997
  27   2.0000      -0.304885        -8.2963
  28   2.0000      -0.303647        -8.2627
  29   2.0000      -0.301974        -8.2171
  30   2.0000      -0.277304        -7.5458
  31   2.0000      -0.251720        -6.8497
  32   0.0000      -0.022619        -0.6155
  33   0.0000       0.077355         2.1049
  34   0.0000       0.104594         2.8461
  35   0.0000       0.116271         3.1639
  36   0.0000       0.127859         3.4792

MULLIKEN ATOMIC CHARGES
-----------------------
   0 C :   -0.529184
   1 C :   -0.226244
   2 C :   -0.312699
   3 C :    0.385801
   4 O :   -0.515224
   5 O :   -0.187140
   6 C :   -0.150913
   7 C :   -0.487384
   8 H :    0.162382
   9 H :    0.161438
  10 H :    0.162050
  11 H :    0.163830
  12 H :    0.154978
  13 H :    0.178254
  14 H :    0.193055
  15 H :    0.170128
  16 H :    0.179229
  17 H :    0.165210
  18 H :    0.168131
  19 H :    0.164305
Sum of atomic charges:    0.0000000

LOEWDIN ATOMIC CHARGES
----------------------
   0 C :   -0.423920
   1 C :   -0.292538
   2 C :   -0.229048
   3 C :    0.365553
   4 O :   -0.503367
   5 O :   -0.598924
   6 C :    0.035811
   7 C :   -0.390218
   8 H :    0.155860
   9 H :    0.156209
  10 H :    0.156065
  11 H :    0.160344
  12 H :    0.163258
  13 H :    0.184393
  14 H :    0.191400
  15 H :    0.185331
  16 H :    0.193078
  17 H :    0.161771
  18 H :    0.167680
  19 H :    0.161261

  Mayer bond orders larger than 0.100000
B(  0-C ,  1-C ) :   0.8975 B(  0-C ,  8-H ) :   0.9783 B(  0-C ,  9-H ) :   0.9655
B(  0-C , 10-H ) :   0.9709 B(  1-C ,  2-C ) :   0.8776 B(  1-C , 11-H ) :   0.9618
B(  1-C , 12-H ) :   0.9719 B(  2-C ,  3-C ) :   0.9486 B(  2-C , 13-H ) :   0.9915
B(  2-C , 14-H ) :   0.9285 B(  3-C ,  4-O ) :   1.7664 B(  3-C ,  5-O ) :   1.0884
B(  5-O ,  6-C ) :   0.7707 B(  6-C ,  7-C ) :   0.9442 B(  6-C , 15-H ) :   0.9395
B(  6-C , 16-H ) :   0.9624 B(  7-C , 17-H ) :   0.9677 B(  7-C , 18-H ) :   0.9611
B(  7-C , 19-H ) :   0.9715

Dispersion correction           -0.005039255
FINAL SINGLE POINT ENERGY      -386.240211451317

DIPOLE MOMENT
-------------

Method             : SCF
Type of density    : Electron Density
Multiplicity       :   1
Irrep              :   0
Energy             :  -386.2469493715471458 Eh
Relativity type    :
Basis              : AO
                                X                 Y                 Z
Electronic contribution:      1.426411921       3.274328133      -1.394434696
Nuclear contribution   :     -1.111374860      -3.895230445       2.308084088
                        -----------------------------------------
Total Dipole Moment    :      0.315037061      -0.620902312       0.913649392
                        -----------------------------------------
Magnitude (a.u.)       :      1.148705028
Magnitude (Debye)      :      2.919776144

Rotational constants in cm-1:             0.141609             0.033311             0.031703
Rotational constants in MHz :          4245.335551           998.642444           950.443911

                             ****ORCA TERMINATED NORMALLY****
TOTAL RUN TIME: 0 days 0 hours 0 minutes 38 seconds 507 msec
