                         Program Version 6.0.0  -   RELEASE  -
|  1> ! pbe def2-sv(p) def2/J RI DEFGRID1 loosescf d4 GCP(DFT/SV(P)) printgap
|  2> %output
|  3>     printlevel normal
|  4> end
|  5> * xyz 0 1
|  6> C -2.1084161038 -1.5372387286 0.0201734971
|  7> C -2.425881295 -0.0496636679 0.1123063953
|  8> C -1.3851604578 0.7968488328 -0.628592849
|  9> C -0.04183308 0.702925339 0.0485590871
| 10> O 0.16377232 0.9572360313 1.2171723242
| 11> O 0.9046634274 0.3147401723 -0.7972925573
| 12> C 2.2465459702 0.162285221 -0.305346092
| 13> C 2.4630993728 -1.2289079101 0.2704449513
| 14> H -2.8734003838 -2.1198424158 0.5263992611
| 15> H -2.0611621399 -1.8544010797 -1.0187966996
| 16> H -1.1498033273 -1.7509902456 0.489053442
| 17> H -2.4441339446 0.2583810379 1.1594881139
| 18> H -3.4078969263 0.1434805433 -0.3201470511
| 19> H -1.6897345176 1.8444849632 -0.6078963745
| 20> H -1.2783460719 0.4701621174 -1.6621697757
| 21> H 2.8804013001 0.3347286798 -1.1755898637
| 22> H 2.4280846978 0.9270252184 0.4560327406
| 23> H 1.8317059569 -1.3727617832 1.1446896549
| 24> H 2.2181684432 -1.9834478086 -0.4722779303
| 25> H 3.5014540784 -1.3390792188 0.5653922632
| 26> *
| 27>
| 28>                          ****END OF INPUT****

CARTESIAN COORDINATES (ANGSTROEM)
---------------------------------
  C     -2.108416   -1.537239    0.020173
  C     -2.425881   -0.049664    0.112306
  C     -1.385160    0.796849   -0.628593
  C     -0.041833    0.702925    0.048559
  O      0.163772    0.957236    1.217172
  O      0.904663    0.314740   -0.797293
  C      2.246546    0.162285   -0.305346
  C      2.463099   -1.228908    0.270445
  H     -2.873400   -2.119842    0.526399
  H     -2.061162   -1.854401   -1.018797
  H     -1.149803   -1.750990    0.489053
  H     -2.444134    0.258381    1.159488
  H     -3.407897    0.143481   -0.320147
  H     -1.689735    1.844485   -0.607896
  H     -1.278346    0.470162   -1.662170
  H      2.880401    0.334729   -1.175590
  H      2.428085    0.927025    0.456033
  H      1.831706   -1.372762    1.144690
  H      2.218168   -1.983448   -0.472278
  H      3.501454   -1.339079    0.565392

 Total Charge           Charge          ....    0
 Multiplicity           Mult            ....    1
 Number of Electrons    NEL             ....   64
 Basis Dimension        Dim             ....  136

ORBITAL ENERGIES
----------------

  NO   OCC          E(Eh)            E(eV)
   0   2.0000     -18.797679      -511.5108
   1   2.0000     -18.731017      -509.6969
   2   2.0000     -10.004432      -272.2344
   3   2.0000      -9.946130      -270.6480
   4   2.0000      -9.895637      -269.2740
   5   2.0000      -9.891132      -269.1514
   6   2.0000      -9.887300      -269.0471
   7   2.0000      -9.877606      -268.7833
   8   2.0000      -1.003809       -27.3150
   9   2.0000      -0.908315       -24.7165
  10   2.0000      -0.727263       -19.7898
  11   2.0000      -0.696805       -18.9610
  12   2.0000      -0.636304       -17.3147
  13   2.0000      -0.591502       -16.0956
  14   2.0000      -0.532372       -14.4866
  15   2.0000      -0.492063       -13.3897
  16   2.0000      -0.452002       -12.2996
  17   2.0000      -0.433997       -11.8097
  18   2.0000      -0.425180       -11.5697
  19   2.0000      -0.395384       -10.7590
  20   2.0000      -0.389795       -10.6069
  21   2.0000      -0.375301       -10.2125
  22   2.0000      -0.361026        -9.8240
  23   2.0000      -0.352480        -9.5915
  24   2.0000      -0.338202        -9.2030
  25   2.0000      -0.330001        -8.9798
  26   2.0000      -0.305287        -8.3073
  27   2.0000      -0.297810        -8.1038
  28   2.0000      -0.297411        -8.0930
  29   2.0000      -0.287309        -7.8181
  30   2.0000      -0.255538        -6.9536
  31   2.0000      -0.217656        -5.9227
  32   0.0000      -0.020336        -0.5534
  33   0.0000       0.036184         0.9846
  34   0.0000       0.057360         1.5609
  35   0.0000       0.069833         1.9003
  36   0.0000       0.079913         2.1746

MULLIKEN ATOMIC CHARGES
-----------------------
   0 C :   -0.292185
   1 C :   -0.202094
   2 C :   -0.119888
   3 C :    0.089587
   4 O :   -0.212576
   5 O :   -0.234316
   6 C :   -0.015669
   7 C :   -0.307003
   8 H :    0.107846
   9 H :    0.099470
  10 H :    0.117811
  11 H :    0.108372
  12 H :    0.091942
  13 H :    0.112554
  14 H :    0.092423
  15 H :    0.101462
  16 H :    0.107699
  17 H :    0.128830
  18 H :    0.113695
  19 H :    0.112039
Sum of atomic charges:    0.0000000

LOEWDIN ATOMIC CHARGES
----------------------
   0 C :   -0.342993
   1 C :   -0.227156
   2 C :   -0.246508
   3 C :    0.037177
   4 O :   -0.175168
   5 O :   -0.065779
   6 C :   -0.113528
   7 C :   -0.356477
   8 H :    0.121803
   9 H :    0.117623
  10 H :    0.119944
  11 H :    0.124653
  12 H :    0.117924
  13 H :    0.142111
  14 H :    0.126292
  15 H :    0.116781
  16 H :    0.119272
  17 H :    0.129636
  18 H :    0.124244
  19 H :    0.130149

  Mayer bond orders larger than 0.100000
B(  0-C ,  1-C ) :   1.1541 B(  0-C ,  8-H ) :   0.9515 B(  0-C ,  9-H ) :   0.9537
B(  0-C , 10-H ) :   0.9480 B(  1-C ,  2-C ) :   1.1126 B(  1-C , 11-H ) :   0.9200
B(  1-C , 12-H ) :   0.9285 B(  2-C ,  3-C ) :   1.0202 B(  2-C , 13-H ) :   0.8920
B(  2-C , 14-H ) :   0.9106 B(  3-C ,  4-O ) :   2.0345 B(  3-C ,  5-O ) :   1.2185
B(  5-O ,  6-C ) :   0.9230 B(  6-C ,  7-C ) :   1.1736 B(  6-C , 15-H ) :   0.9373
B(  6-C , 16-H ) :   0.9131 B(  7-C , 17-H ) :   0.9443 B(  7-C , 18-H ) :   0.9487
B(  7-C , 19-H ) :   0.9439

Dispersion correction           -0.015461026
FINAL SINGLE POINT ENERGY      -385.458711829842

DIPOLE MOMENT
-------------

Method             : SCF
Type of density    : Electron Density
Multiplicity       :   1
Irrep              :   0
Energy             :  -385.5335480281700598 Eh
Relativity type    :
Basis              : AO
                                X                 Y                 Z
Electronic contribution:      2.079327175       5.733565946       0.281893168
Nuclear contribution   :     -1.902391638      -6.025052714      -0.852967861
                        -----------------------------------------
Total Dipole Moment    :      0.176935536      -0.291486768      -0.571074693
                        -----------------------------------------
Magnitude (a.u.)       :      0.665129330
Magnitude (Debye)      :      1.690624400

Rotational constants in cm-1:             0.111932             0.040543             0.036213
Rotational constants in MHz :          3355.630453          1215.461898          1085.623673

                             ****ORCA TERMINATED NORMALLY****
TOTAL RUN TIME: 0 days 0 hours 0 minutes 10 seconds 765 msec
