                         Program Version 6.0.0  -   RELEASE  -
|  1> ! r2scan-3c def2/J RI DEFGRID2 scfconv6 printgap
|  2> %output
|  3>     printlevel normal
|  4> end
|  5> * xyz 0 1
|  6> C -3.3911733858 -1.0224522911 0.3087450492
|  7> C -2.0420860637 -0.3786659421 0.6015499969
|  8> C -1.3110624143 -0.0080462894 -0.6978743048
|  9> C 0.0048667767 0.6368856143 -0.3586979509
| 10> O 0.1885272488 1.8330359307 -0.2510590417
| 11> O 0.9528386231 -0.2641611191 -0.1486083154
| 12> C 2.2557201944 0.2062257684 0.2366186527
| 13> C 3.1976556411 -0.9816643521 0.2667761672
| 14> H -3.2603812588 -1.9303345596 -0.2741047989
| 15> H -3.8935229723 -1.2768645326 1.237946126
| 16> H -4.0256425538 -0.3403310384 -0.2512076065
| 17> H -1.4195520676 -1.0688587106 1.1738179288
| 18> H -2.1842656785 0.5245496687 1.1987336549
| 19> H -1.9103916366 0.6991603836 -1.2703857605
| 20> H -1.1265960795 -0.9082005436 -1.2827302466
| 21> H 2.5766584794 0.9647987215 -0.4848706996
| 22> H 2.1727949234 0.6839257932 1.2183532932
| 23> H 2.8409707275 -1.7200915547 0.9784564287
| 24> H 3.2506286455 -1.4398452937 -0.7163312399
| 25> H 4.1872851426 -0.6482921674 0.5609212881
| 26> *
| 27>
| 28>                          ****END OF INPUT****

CARTESIAN COORDINATES (ANGSTROEM)
---------------------------------
  C     -3.391173   -1.022452    0.308745
  C     -2.042086   -0.378666    0.601550
  C     -1.311062   -0.008046   -0.697874
  C      0.004867    0.636886   -0.358698
  O      0.188527    1.833036   -0.251059
  O      0.952839   -0.264161   -0.148608
  C      2.255720    0.206226    0.236619
  C      3.197656   -0.981664    0.266776
  H     -3.260381   -1.930335   -0.274105
  H     -3.893523   -1.276865    1.237946
  H     -4.025643   -0.340331   -0.251208
  H     -1.419552   -1.068859    1.173818
  H     -2.184266    0.524550    1.198734
  H     -1.910392    0.699160   -1.270386
  H     -1.126596   -0.908201   -1.282730
  H      2.576658    0.964799   -0.484871
  H      2.172795    0.683926    1.218353
  H      2.840971   -1.720092    0.978456
  H      3.250629   -1.439845   -0.716331
  H      4.187285   -0.648292    0.560921

 Total Charge           Charge          ....    0
 Multiplicity           Mult            ....    1
 Number of Electrons    NEL             ....   64
 Basis Dimension        Dim             ....  222

ORBITAL ENERGIES
----------------

  NO   OCC          E(Eh)            E(eV)
   0   2.0000     -18.995630      -516.8974
   1   2.0000     -18.924950      -514.9741
   2   2.0000     -10.148952      -276.1670
   3   2.0000     -10.091176      -274.5949
   4   2.0000     -10.040159      -273.2066
   5   2.0000     -10.038832      -273.1705
   6   2.0000     -10.032126      -272.9880
   7   2.0000     -10.023674      -272.7580
   8   2.0000      -1.070818       -29.1384
   9   2.0000      -0.971878       -26.4461
  10   2.0000      -0.775724       -21.1085
  11   2.0000      -0.743138       -20.2218
  12   2.0000      -0.681185       -18.5360
  13   2.0000      -0.613676       -16.6990
  14   2.0000      -0.568139       -15.4598
  15   2.0000      -0.534280       -14.5385
  16   2.0000      -0.467489       -12.7210
  17   2.0000      -0.458516       -12.4769
  18   2.0000      -0.446009       -12.1365
  19   2.0000      -0.422780       -11.5044
  20   2.0000      -0.405711       -11.0400
  21   2.0000      -0.384459       -10.4617
  22   2.0000      -0.376450       -10.2437
  23   2.0000      -0.364315        -9.9135
  24   2.0000      -0.357889        -9.7387
  25   2.0000      -0.340605        -9.2683
  26   2.0000      -0.328072        -8.9273
  27   2.0000      -0.313800        -8.5389
  28   2.0000      -0.310262        -8.4427
  29   2.0000      -0.307643        -8.3714
  30   2.0000      -0.269782        -7.3411
  31   2.0000      -0.230394        -6.2693
  32   0.0000      -0.013236        -0.3602
  33   0.0000       0.074429         2.0253
  34   0.0000       0.094874         2.5817
  35   0.0000       0.104992         2.8570
  36   0.0000       0.121022         3.2932

MULLIKEN ATOMIC CHARGES
-----------------------
   0 C :   -0.473784
   1 C :   -0.231316
   2 C :   -0.343485
   3 C :    0.408108
   4 O :   -0.423434
   5 O :   -0.170800
   6 C :   -0.149475
   7 C :   -0.442547
   8 H :    0.144649
   9 H :    0.150667
  10 H :    0.146462
  11 H :    0.147959
  12 H :    0.153755
  13 H :    0.162596
  14 H :    0.155235
  15 H :    0.161383
  16 H :    0.152590
  17 H :    0.151461
  18 H :    0.152704
  19 H :    0.147271
Sum of atomic charges:    0.0000000

LOEWDIN ATOMIC CHARGES
----------------------
   0 C :   -0.419607
   1 C :   -0.287785
   2 C :   -0.230283
   3 C :    0.353144
   4 O :   -0.426222
   5 O :   -0.600134
   6 C :    0.034007
   7 C :   -0.387018
   8 H :    0.150614
   9 H :    0.153077
  10 H :    0.151565
  11 H :    0.158402
  12 H :    0.160515
  13 H :    0.177065
  14 H :    0.175895
  15 H :    0.181651
  16 H :    0.177217
  17 H :    0.159001
  18 H :    0.159344
  19 H :    0.159552

  Mayer bond orders larger than 0.100000
B(  0-C ,  1-C ) :   0.8960 B(  0-C ,  8-H ) :   0.9853 B(  0-C ,  9-H ) :   0.9720
B(  0-C , 10-H ) :   0.9834 B(  1-C ,  2-C ) :   0.9268 B(  1-C , 11-H ) :   0.9632
B(  1-C , 12-H ) :   0.9585 B(  2-C ,  3-C ) :   0.9591 B(  2-C , 13-H ) :   0.9774
B(  2-C , 14-H ) :   0.9823 B(  3-C ,  4-O ) :   1.8246 B(  3-C ,  5-O ) :   1.0506
B(  5-O ,  6-C ) :   0.8079 B(  6-C ,  7-C ) :   0.9410 B(  6-C , 15-H ) :   0.9576
B(  6-C , 16-H ) :   0.9492 B(  7-C , 17-H ) :   0.9709 B(  7-C , 18-H ) :   0.9733
B(  7-C , 19-H ) :   0.9683

Dispersion correction           -0.004860485
FINAL SINGLE POINT ENERGY      -386.235668079159

DIPOLE MOMENT
-------------

Method             : SCF
Type of density    : Electron Density
Multiplicity       :   1
Irrep              :   0
Energy             :  -386.2423771317733667 Eh
Relativity type    :
Basis              : AO
                                X                 Y                 Z
Electronic contribution:      2.767823020       5.159676520      -1.835995520
Nuclear contribution   :     -2.602450502      -6.037653437       1.953527102
                        -----------------------------------------
Total Dipole Moment    :      0.165372519      -0.877976917       0.117531581
                        -----------------------------------------
Magnitude (a.u.)       :      0.901113317
Magnitude (Debye)      :      2.290448027

Rotational constants in cm-1:             0.132875             0.031613             0.027343
Rotational constants in MHz :          3983.505690           947.732831           819.718683

                             ****ORCA TERMINATED NORMALLY****
TOTAL RUN TIME: 0 days 0 hours 0 minutes 30 seconds 907 msec
