                         Program Version 6.0.0  -   RELEASE  -
|  1> ! r2scan-3c def2/J RI DEFGRID2 scfconv6 printgap
|  2> %output
|  3>     printlevel normal
|  4> end
|  5> %cpcm
|  6>     smd true
|  7>     smdsolvent "water"
|  8> end
|  9> * xyz 0 1
| 10> C -3.3911733858 -1.0224522911 0.3087450492
| 11> C -2.0420860637 -0.3786659421 0.6015499969
| 12> C -1.3110624143 -0.0080462894 -0.6978743048
| 13> C 0.0048667767 0.6368856143 -0.3586979509
| 14> O 0.1885272488 1.8330359307 -0.2510590417
| 15> O 0.9528386231 -0.2641611191 -0.1486083154
| 16> C 2.2557201944 0.2062257684 0.2366186527
| 17> C 3.1976556411 -0.9816643521 0.2667761672
| 18> H -3.2603812588 -1.9303345596 -0.2741047989
| 19> H -3.8935229723 -1.2768645326 1.237946126
| 20> H -4.0256425538 -0.3403310384 -0.2512076065
| 21> H -1.4195520676 -1.0688587106 1.1738179288
| 22> H -2.1842656785 0.5245496687 1.1987336549
| 23> H -1.9103916366 0.6991603836 -1.2703857605
| 24> H -1.1265960795 -0.9082005436 -1.2827302466
| 25> H 2.5766584794 0.9647987215 -0.4848706996
| 26> H 2.1727949234 0.6839257932 1.2183532932
| 27> H 2.8409707275 -1.7200915547 0.9784564287
| 28> H 3.2506286455 -1.4398452937 -0.7163312399
| 29> H 4.1872851426 -0.6482921674 0.5609212881
| 30> *
| 31>
| 32>                          ****END OF INPUT****

CARTESIAN COORDINATES (ANGSTROEM)
---------------------------------
  C     -3.391173   -1.022452    0.308745
  C     -2.042086   -0.378666    0.601550
  C     -1.311062   -0.008046   -0.697874
  C      0.004867    0.636886   -0.358698
  O      0.188527    1.833036   -0.251059
  O      0.952839   -0.264161   -0.148608
  C      2.255720    0.206226    0.236619
  C      3.197656   -0.981664    0.266776
  H     -3.260381   -1.930335   -0.274105
  H     -3.893523   -1.276865    1.237946
  H     -4.025643   -0.340331   -0.251208
  H     -1.419552   -1.068859    1.173818
  H     -2.184266    0.524550    1.198734
  H     -1.910392    0.699160   -1.270386
  H     -1.126596   -0.908201   -1.282730
  H      2.576658    0.964799   -0.484871
  H      2.172795    0.683926    1.218353
  H      2.840971   -1.720092    0.978456
  H      3.250629   -1.439845   -0.716331
  H      4.187285   -0.648292    0.560921

 Total Charge           Charge          ....    0
 Multiplicity           Mult            ....    1
 Number of Electrons    NEL             ....   64
 Basis Dimension        Dim             ....  222

ORBITAL ENERGIES
----------------

  NO   OCC          E(Eh)            E(eV)
   0   2.0000     -19.002293      -517.0787
   1   2.0000     -18.943005      -515.4654
   2   2.0000     -10.161245      -276.5015
   3   2.0000     -10.084037      -274.4006
   4   2.0000     -10.034918      -273.0640
   5   2.0000     -10.030433      -272.9420
   6   2.0000     -10.018862      -272.6271
   7   2.0000     -10.011989      -272.4401
   8   2.0000      -1.079368       -29.3711
   9   2.0000      -0.987623       -26.8746
  10   2.0000      -0.770442       -20.9648
  11   2.0000      -0.735094       -20.0029
  12   2.0000      -0.674120       -18.3437
  13   2.0000      -0.606983       -16.5169
  14   2.0000      -0.560114       -15.2415
  15   2.0000      -0.533331       -14.5127
  16   2.0000      -0.469789       -12.7836
  17   2.0000      -0.459416       -12.5013
  18   2.0000      -0.447688       -12.1822
  19   2.0000      -0.425558       -11.5800
  20   2.0000      -0.402060       -10.9406
  21   2.0000      -0.380350       -10.3499
  22   2.0000      -0.365064        -9.9339
  23   2.0000      -0.361049        -9.8247
  24   2.0000      -0.348908        -9.4943
  25   2.0000      -0.334106        -9.0915
  26   2.0000      -0.322866        -8.7856
  27   2.0000      -0.313756        -8.5377
  28   2.0000      -0.304728        -8.2921
  29   2.0000      -0.300552        -8.1784
  30   2.0000      -0.276358        -7.5201
  31   2.0000      -0.248419        -6.7598
  32   0.0000      -0.022927        -0.6239
  33   0.0000       0.077370         2.1053
  34   0.0000       0.104231         2.8363
  35   0.0000       0.115709         3.1486
  36   0.0000       0.127877         3.4797

MULLIKEN ATOMIC CHARGES
-----------------------
   0 C :   -0.517746
   1 C :   -0.218142
   2 C :   -0.369062
   3 C :    0.453883
   4 O :   -0.512610
   5 O :   -0.184686
   6 C :   -0.152208
   7 C :   -0.491145
   8 H :    0.159035
   9 H :    0.162360
  10 H :    0.159038
  11 H :    0.157612
  12 H :    0.157415
  13 H :    0.176486
  14 H :    0.177610
  15 H :    0.171237
  16 H :    0.171698
  17 H :    0.164763
  18 H :    0.165490
  19 H :    0.168972
Sum of atomic charges:    0.0000000

LOEWDIN ATOMIC CHARGES
----------------------
   0 C :   -0.424773
   1 C :   -0.285176
   2 C :   -0.228223
   3 C :    0.362683
   4 O :   -0.490358
   5 O :   -0.600162
   6 C :    0.036315
   7 C :   -0.389819
   8 H :    0.154837
   9 H :    0.156414
  10 H :    0.154872
  11 H :    0.161753
  12 H :    0.161340
  13 H :    0.182229
  14 H :    0.185625
  15 H :    0.185269
  16 H :    0.183618
  17 H :    0.162660
  18 H :    0.162589
  19 H :    0.168304

  Mayer bond orders larger than 0.100000
B(  0-C ,  1-C ) :   0.8880 B(  0-C ,  8-H ) :   0.9823 B(  0-C ,  9-H ) :   0.9686
B(  0-C , 10-H ) :   0.9811 B(  1-C ,  2-C ) :   0.9162 B(  1-C , 11-H ) :   0.9601
B(  1-C , 12-H ) :   0.9577 B(  2-C ,  3-C ) :   0.9546 B(  2-C , 13-H ) :   0.9769
B(  2-C , 14-H ) :   0.9709 B(  3-C ,  4-O ) :   1.7511 B(  3-C ,  5-O ) :   1.0804
B(  5-O ,  6-C ) :   0.7939 B(  6-C ,  7-C ) :   0.9433 B(  6-C , 15-H ) :   0.9505
B(  6-C , 16-H ) :   0.9409 B(  7-C , 17-H ) :   0.9685 B(  7-C , 18-H ) :   0.9716
B(  7-C , 19-H ) :   0.9618

Dispersion correction           -0.004860485
FINAL SINGLE POINT ENERGY      -386.241434325839

DIPOLE MOMENT
-------------

Method             : SCF
Type of density    : Electron Density
Multiplicity       :   1
Irrep              :   0
Energy             :  -386.2481433784535625 Eh
Relativity type    :
Basis              : AO
                                X                 Y                 Z
Electronic contribution:      2.809671927       4.815992433      -1.820973147
Nuclear contribution   :     -2.602450502      -6.037653437       1.953527102
                        -----------------------------------------
Total Dipole Moment    :      0.207221425      -1.221661003       0.132553955
                        -----------------------------------------
Magnitude (a.u.)       :      1.246180917
Magnitude (Debye)      :      3.167540162

Rotational constants in cm-1:             0.132875             0.031613             0.027343
Rotational constants in MHz :          3983.505690           947.732831           819.718683

                             ****ORCA TERMINATED NORMALLY****
TOTAL RUN TIME: 0 days 0 hours 0 minutes 36 seconds 660 msec
