                         Program Version 6.0.0  -   RELEASE  -
|  1> ! pbe def2-sv(p) def2/J RI DEFGRID1 loosescf d4 GCP(DFT/SV(P)) printgap
|  2> %output
|  3>     printlevel normal
|  4> end
|  5> * xyz 0 1
|  6> C -3.3442929267 -1.0368278461 0.3229430207
|  7> C -1.8312644454 -0.9202783396 0.1807346889
|  8> C -1.4115247984 0.5323073662 -0.0278760006
|  9> C 0.0725919386 0.7414866158 -0.1820467083
| 10> O 0.6030832782 1.835019754 -0.1410675338
| 11> O 0.7361382761 -0.3853028804 -0.3921594658
| 12> C 2.1618290367 -0.3219613593 -0.5613129501
| 13> C 2.8758991078 -0.4341244104 0.7768727387
| 14> H -3.6947986909 -0.4531169533 1.1706203327
| 15> H -3.8413360511 -0.6734638666 -0.5731027901
| 16> H -3.6294902261 -2.0736500736 0.4779111127
| 17> H -1.4930724194 -1.5194229794 -0.6652572213
| 18> H -1.3468022424 -1.3102776274 1.0770590685
| 19> H -1.7432207418 1.1588095383 0.8028757642
| 20> H -1.8788924485 0.9334084257 -0.9314168265
| 21> H 2.4001068504 -1.1659015145 -1.2095477924
| 22> H 2.4140749012 0.6213743613 -1.0551908475
| 23> H 3.9482719533 -0.4485226686 0.6119920366
| 24> H 2.6265890903 0.4185498936 1.4045465884
| 25> H 2.5781355519 -1.3474859987 1.2845221073
| 26> *
| 27>
| 28>                          ****END OF INPUT****

CARTESIAN COORDINATES (ANGSTROEM)
---------------------------------
  C     -3.344293   -1.036828    0.322943
  C     -1.831264   -0.920278    0.180735
  C     -1.411525    0.532307   -0.027876
  C      0.072592    0.741487   -0.182047
  O      0.603083    1.835020   -0.141068
  O      0.736138   -0.385303   -0.392159
  C      2.161829   -0.321961   -0.561313
  C      2.875899   -0.434124    0.776873
  H     -3.694799   -0.453117    1.170620
  H     -3.841336   -0.673464   -0.573103
  H     -3.629490   -2.073650    0.477911
  H     -1.493072   -1.519423   -0.665257
  H     -1.346802   -1.310278    1.077059
  H     -1.743221    1.158810    0.802876
  H     -1.878892    0.933408   -0.931417
  H      2.400107   -1.165902   -1.209548
  H      2.414075    0.621374   -1.055191
  H      3.948272   -0.448523    0.611992
  H      2.626589    0.418550    1.404547
  H      2.578136   -1.347486    1.284522

 Total Charge           Charge          ....    0
 Multiplicity           Mult            ....    1
 Number of Electrons    NEL             ....   64
 Basis Dimension        Dim             ....  136

ORBITAL ENERGIES
----------------

  NO   OCC          E(Eh)            E(eV)
   0   2.0000     -18.797420      -511.5038
   1   2.0000     -18.728806      -509.6367
   2   2.0000     -10.001812      -272.1631
   3   2.0000      -9.945178      -270.6221
   4   2.0000      -9.895861      -269.2801
   5   2.0000      -9.888631      -269.0833
   6   2.0000      -9.886175      -269.0165
   7   2.0000      -9.877497      -268.7803
   8   2.0000      -1.003686       -27.3117
   9   2.0000      -0.904950       -24.6250
  10   2.0000      -0.728318       -19.8185
  11   2.0000      -0.694481       -18.8978
  12   2.0000      -0.637904       -17.3582
  13   2.0000      -0.587733       -15.9930
  14   2.0000      -0.534664       -14.5490
  15   2.0000      -0.496553       -13.5119
  16   2.0000      -0.453060       -12.3284
  17   2.0000      -0.439264       -11.9530
  18   2.0000      -0.412455       -11.2235
  19   2.0000      -0.402525       -10.9533
  20   2.0000      -0.388825       -10.5805
  21   2.0000      -0.366460        -9.9719
  22   2.0000      -0.363227        -9.8839
  23   2.0000      -0.351556        -9.5663
  24   2.0000      -0.331653        -9.0247
  25   2.0000      -0.324754        -8.8370
  26   2.0000      -0.314965        -8.5706
  27   2.0000      -0.305405        -8.3105
  28   2.0000      -0.295289        -8.0352
  29   2.0000      -0.286716        -7.8019
  30   2.0000      -0.252785        -6.8786
  31   2.0000      -0.213086        -5.7984
  32   0.0000      -0.016851        -0.4586
  33   0.0000       0.034501         0.9388
  34   0.0000       0.051904         1.4124
  35   0.0000       0.075132         2.0444
  36   0.0000       0.078944         2.1482

MULLIKEN ATOMIC CHARGES
-----------------------
   0 C :   -0.256738
   1 C :   -0.188712
   2 C :   -0.194404
   3 C :    0.136983
   4 O :   -0.215918
   5 O :   -0.236581
   6 C :   -0.014270
   7 C :   -0.302254
   8 H :    0.097621
   9 H :    0.096793
  10 H :    0.104287
  11 H :    0.095665
  12 H :    0.090732
  13 H :    0.110960
  14 H :    0.115450
  15 H :    0.100614
  16 H :    0.109155
  17 H :    0.112319
  18 H :    0.125345
  19 H :    0.112951
Sum of atomic charges:   -0.0000000

LOEWDIN ATOMIC CHARGES
----------------------
   0 C :   -0.339905
   1 C :   -0.236747
   2 C :   -0.247497
   3 C :    0.036296
   4 O :   -0.178921
   5 O :   -0.059934
   6 C :   -0.113107
   7 C :   -0.355349
   8 H :    0.117152
   9 H :    0.117142
  10 H :    0.120200
  11 H :    0.119292
  12 H :    0.117480
  13 H :    0.139308
  14 H :    0.143531
  15 H :    0.116507
  16 H :    0.120001
  17 H :    0.130269
  18 H :    0.130294
  19 H :    0.123989

  Mayer bond orders larger than 0.100000
B(  0-C ,  1-C ) :   1.1510 B(  0-C ,  8-H ) :   0.9536 B(  0-C ,  9-H ) :   0.9539
B(  0-C , 10-H ) :   0.9536 B(  1-C ,  2-C ) :   1.1279 B(  1-C , 11-H ) :   0.9209
B(  1-C , 12-H ) :   0.9316 B(  2-C ,  3-C ) :   1.0299 B(  2-C , 13-H ) :   0.9065
B(  2-C , 14-H ) :   0.8919 B(  3-C ,  4-O ) :   2.0405 B(  3-C ,  5-O ) :   1.2217
B(  5-O ,  6-C ) :   0.9209 B(  6-C ,  7-C ) :   1.1745 B(  6-C , 15-H ) :   0.9367
B(  6-C , 16-H ) :   0.9116 B(  7-C , 17-H ) :   0.9446 B(  7-C , 18-H ) :   0.9468
B(  7-C , 19-H ) :   0.9493

Dispersion correction           -0.014779095
FINAL SINGLE POINT ENERGY      -385.456809691340

DIPOLE MOMENT
-------------

Method             : SCF
Type of density    : Electron Density
Multiplicity       :   1
Irrep              :   0
Energy             :  -385.5320706778407498 Eh
Relativity type    :
Basis              : AO
                                X                 Y                 Z
Electronic contribution:      3.453749920       4.709930949      -2.268766842
Nuclear contribution   :     -3.414239525      -5.475878258       2.239013284
                        -----------------------------------------
Total Dipole Moment    :      0.039510395      -0.765947309      -0.029753558
                        -----------------------------------------
Magnitude (a.u.)       :      0.767542589
Magnitude (Debye)      :      1.950938217

Rotational constants in cm-1:             0.131262             0.034069             0.029442
Rotational constants in MHz :          3935.130443          1021.350065           882.644707

                             ****ORCA TERMINATED NORMALLY****
TOTAL RUN TIME: 0 days 0 hours 0 minutes 9 seconds 965 msec
