                         Program Version 6.0.0  -   RELEASE  -
|  1> ! r2scan-3c def2/J RI DEFGRID2 scfconv6 printgap
|  2> %output
|  3>     printlevel normal
|  4> end
|  5> * xyz 0 1
|  6> C -3.250971608 -0.173592049 0.9896021656
|  7> C -2.6907010366 -0.4370687745 -0.4036082493
|  8> C -1.1710108869 -0.6032473864 -0.4197959513
|  9> C -0.4386474063 0.689948139 -0.0532204383
| 10> C 1.0574260852 0.5643825361 -0.1566956583
| 11> O 1.7914900172 1.4281955149 -0.5937259268
| 12> O 1.5047371249 -0.5994038253 0.2988735634
| 13> C 2.915395362 -0.8263461151 0.263429672
| 14> H -4.3376992144 -0.1689763783 0.9611770505
| 15> H -2.9294624248 -0.9487768684 1.6811314951
| 16> H -2.9208592103 0.7893003242 1.369772594
| 17> H -3.1369446209 -1.3527274701 -0.7962003568
| 18> H -2.9721877427 0.3804903662 -1.0702126944
| 19> H -0.8594712441 -0.912029073 -1.4198247823
| 20> H -0.8805028667 -1.3892703125 0.2781370466
| 21> H -0.6616821728 0.9599583301 0.9810774382
| 22> H -0.7497121525 1.5141909472 -0.6964066164
| 23> H 3.0508819927 -1.8707510119 0.5260625387
| 24> H 3.4147412767 -0.1751182734 0.9817412061
| 25> H 3.3031890371 -0.6167864609 -0.7342408186
| 26> *
| 27>
| 28>                          ****END OF INPUT****

CARTESIAN COORDINATES (ANGSTROEM)
---------------------------------
  C     -3.250972   -0.173592    0.989602
  C     -2.690701   -0.437069   -0.403608
  C     -1.171011   -0.603247   -0.419796
  C     -0.438647    0.689948   -0.053220
  C      1.057426    0.564383   -0.156696
  O      1.791490    1.428196   -0.593726
  O      1.504737   -0.599404    0.298874
  C      2.915395   -0.826346    0.263430
  H     -4.337699   -0.168976    0.961177
  H     -2.929462   -0.948777    1.681131
  H     -2.920859    0.789300    1.369773
  H     -3.136945   -1.352727   -0.796200
  H     -2.972188    0.380490   -1.070213
  H     -0.859471   -0.912029   -1.419825
  H     -0.880503   -1.389270    0.278137
  H     -0.661682    0.959958    0.981077
  H     -0.749712    1.514191   -0.696407
  H      3.050882   -1.870751    0.526063
  H      3.414741   -0.175118    0.981741
  H      3.303189   -0.616786   -0.734241

 Total Charge           Charge          ....    0
 Multiplicity           Mult            ....    1
 Number of Electrons    NEL             ....   64
 Basis Dimension        Dim             ....  222

ORBITAL ENERGIES
----------------

  NO   OCC          E(Eh)            E(eV)
   0   2.0000     -18.999840      -517.0119
   1   2.0000     -18.927038      -515.0309
   2   2.0000     -10.151937      -276.2482
   3   2.0000     -10.087324      -274.4900
   4   2.0000     -10.042685      -273.2753
   5   2.0000     -10.033423      -273.0233
   6   2.0000     -10.030606      -272.9467
   7   2.0000     -10.020934      -272.6835
   8   2.0000      -1.073804       -29.2197
   9   2.0000      -0.974116       -26.5071
  10   2.0000      -0.780805       -21.2468
  11   2.0000      -0.727846       -19.8057
  12   2.0000      -0.682923       -18.5833
  13   2.0000      -0.627450       -17.0738
  14   2.0000      -0.549408       -14.9502
  15   2.0000      -0.535593       -14.5742
  16   2.0000      -0.472449       -12.8560
  17   2.0000      -0.461620       -12.5613
  18   2.0000      -0.440092       -11.9755
  19   2.0000      -0.431604       -11.7445
  20   2.0000      -0.410898       -11.1811
  21   2.0000      -0.391676       -10.6580
  22   2.0000      -0.379824       -10.3355
  23   2.0000      -0.372961       -10.1488
  24   2.0000      -0.345213        -9.3937
  25   2.0000      -0.340049        -9.2532
  26   2.0000      -0.324305        -8.8248
  27   2.0000      -0.308670        -8.3993
  28   2.0000      -0.301687        -8.2093
  29   2.0000      -0.299313        -8.1447
  30   2.0000      -0.273944        -7.4544
  31   2.0000      -0.232182        -6.3180
  32   0.0000      -0.014007        -0.3812
  33   0.0000       0.063665         1.7324
  34   0.0000       0.093837         2.5534
  35   0.0000       0.096066         2.6141
  36   0.0000       0.114593         3.1182

MULLIKEN ATOMIC CHARGES
-----------------------
   0 C :   -0.495954
   1 C :   -0.212307
   2 C :   -0.270355
   3 C :   -0.347101
   4 C :    0.361715
   5 O :   -0.418590
   6 O :   -0.173599
   7 C :   -0.291285
   8 H :    0.149538
   9 H :    0.147862
  10 H :    0.147645
  11 H :    0.144953
  12 H :    0.135694
  13 H :    0.145488
  14 H :    0.158380
  15 H :    0.172067
  16 H :    0.171838
  17 H :    0.149832
  18 H :    0.157547
  19 H :    0.166633
Sum of atomic charges:    0.0000000

LOEWDIN ATOMIC CHARGES
----------------------
   0 C :   -0.425832
   1 C :   -0.315564
   2 C :   -0.288757
   3 C :   -0.226741
   4 C :    0.355626
   5 O :   -0.424867
   6 O :   -0.610419
   7 C :   -0.042791
   8 H :    0.152504
   9 H :    0.151178
  10 H :    0.148563
  11 H :    0.154096
  12 H :    0.152707
  13 H :    0.160576
  14 H :    0.167192
  15 H :    0.182035
  16 H :    0.180105
  17 H :    0.175650
  18 H :    0.174783
  19 H :    0.179956

  Mayer bond orders larger than 0.100000
B(  0-C ,  1-C ) :   0.8852 B(  0-C ,  8-H ) :   0.9690 B(  0-C ,  9-H ) :   0.9818
B(  0-C , 10-H ) :   0.9822 B(  1-C ,  2-C ) :   0.8812 B(  1-C , 11-H ) :   0.9705
B(  1-C , 12-H ) :   0.9816 B(  2-C ,  3-C ) :   0.8906 B(  2-C , 13-H ) :   0.9673
B(  2-C , 14-H ) :   0.9764 B(  3-C ,  4-C ) :   1.0191 B(  3-C , 15-H ) :   0.9343
B(  3-C , 16-H ) :   0.9865 B(  4-C ,  5-O ) :   1.8414 B(  4-C ,  6-O ) :   1.0486
B(  6-O ,  7-C ) :   0.8489 B(  7-C , 17-H ) :   0.9702 B(  7-C , 18-H ) :   0.9616
B(  7-C , 19-H ) :   0.9637

Dispersion correction           -0.005065782
FINAL SINGLE POINT ENERGY      -386.229270537706

DIPOLE MOMENT
-------------

Method             : SCF
Type of density    : Electron Density
Multiplicity       :   1
Irrep              :   0
Energy             :  -386.2362182992912381 Eh
Relativity type    :
Basis              : AO
                                X                 Y                 Z
Electronic contribution:      8.727567774       2.767602537      -1.619362141
Nuclear contribution   :     -9.032303953      -3.543827546       1.930328475
                        -----------------------------------------
Total Dipole Moment    :     -0.304736179      -0.776225010       0.310966334
                        -----------------------------------------
Magnitude (a.u.)       :      0.889994082
Magnitude (Debye)      :      2.262185176

Rotational constants in cm-1:             0.152557             0.030186             0.027674
Rotational constants in MHz :          4573.549336           904.962441           829.649381

                             ****ORCA TERMINATED NORMALLY****
TOTAL RUN TIME: 0 days 0 hours 0 minutes 27 seconds 798 msec
