                         Program Version 6.0.0  -   RELEASE  -
|  1> ! r2scan-3c def2/J RI DEFGRID2 scfconv6 printgap
|  2> %output
|  3>     printlevel normal
|  4> end
|  5> %cpcm
|  6>     smd true
|  7>     smdsolvent "water"
|  8> end
|  9> * xyz 0 1
| 10> C -3.250971608 -0.173592049 0.9896021656
| 11> C -2.6907010366 -0.4370687745 -0.4036082493
| 12> C -1.1710108869 -0.6032473864 -0.4197959513
| 13> C -0.4386474063 0.689948139 -0.0532204383
| 14> C 1.0574260852 0.5643825361 -0.1566956583
| 15> O 1.7914900172 1.4281955149 -0.5937259268
| 16> O 1.5047371249 -0.5994038253 0.2988735634
| 17> C 2.915395362 -0.8263461151 0.263429672
| 18> H -4.3376992144 -0.1689763783 0.9611770505
| 19> H -2.9294624248 -0.9487768684 1.6811314951
| 20> H -2.9208592103 0.7893003242 1.369772594
| 21> H -3.1369446209 -1.3527274701 -0.7962003568
| 22> H -2.9721877427 0.3804903662 -1.0702126944
| 23> H -0.8594712441 -0.912029073 -1.4198247823
| 24> H -0.8805028667 -1.3892703125 0.2781370466
| 25> H -0.6616821728 0.9599583301 0.9810774382
| 26> H -0.7497121525 1.5141909472 -0.6964066164
| 27> H 3.0508819927 -1.8707510119 0.5260625387
| 28> H 3.4147412767 -0.1751182734 0.9817412061
| 29> H 3.3031890371 -0.6167864609 -0.7342408186
| 30> *
| 31>
| 32>                          ****END OF INPUT****

CARTESIAN COORDINATES (ANGSTROEM)
---------------------------------
  C     -3.250972   -0.173592    0.989602
  C     -2.690701   -0.437069   -0.403608
  C     -1.171011   -0.603247   -0.419796
  C     -0.438647    0.689948   -0.053220
  C      1.057426    0.564383   -0.156696
  O      1.791490    1.428196   -0.593726
  O      1.504737   -0.599404    0.298874
  C      2.915395   -0.826346    0.263430
  H     -4.337699   -0.168976    0.961177
  H     -2.929462   -0.948777    1.681131
  H     -2.920859    0.789300    1.369773
  H     -3.136945   -1.352727   -0.796200
  H     -2.972188    0.380490   -1.070213
  H     -0.859471   -0.912029   -1.419825
  H     -0.880503   -1.389270    0.278137
  H     -0.661682    0.959958    0.981077
  H     -0.749712    1.514191   -0.696407
  H      3.050882   -1.870751    0.526063
  H      3.414741   -0.175118    0.981741
  H      3.303189   -0.616786   -0.734241

 Total Charge           Charge          ....    0
 Multiplicity           Mult            ....    1
 Number of Electrons    NEL             ....   64
 Basis Dimension        Dim             ....  222

ORBITAL ENERGIES
----------------

  NO   OCC          E(Eh)            E(eV)
   0   2.0000     -19.004539      -517.1398
   1   2.0000     -18.943300      -515.4734
   2   2.0000     -10.162422      -276.5336
   3   2.0000     -10.076775      -274.2030
   4   2.0000     -10.035815      -273.0884
   5   2.0000     -10.024008      -272.7671
   6   2.0000     -10.018810      -272.6257
   7   2.0000     -10.008132      -272.3351
   8   2.0000      -1.080366       -29.3983
   9   2.0000      -0.988082       -26.8871
  10   2.0000      -0.772634       -21.0244
  11   2.0000      -0.721024       -19.6201
  12   2.0000      -0.675137       -18.3714
  13   2.0000      -0.618610       -16.8332
  14   2.0000      -0.541362       -14.7312
  15   2.0000      -0.531547       -14.4641
  16   2.0000      -0.470532       -12.8038
  17   2.0000      -0.460623       -12.5342
  18   2.0000      -0.450772       -12.2661
  19   2.0000      -0.423942       -11.5361
  20   2.0000      -0.406395       -11.0586
  21   2.0000      -0.382516       -10.4088
  22   2.0000      -0.373740       -10.1700
  23   2.0000      -0.367751       -10.0070
  24   2.0000      -0.341177        -9.2839
  25   2.0000      -0.332886        -9.0583
  26   2.0000      -0.322820        -8.7844
  27   2.0000      -0.301461        -8.2032
  28   2.0000      -0.291694        -7.9374
  29   2.0000      -0.288955        -7.8629
  30   2.0000      -0.281216        -7.6523
  31   2.0000      -0.247891        -6.7455
  32   0.0000      -0.021813        -0.5936
  33   0.0000       0.069668         1.8958
  34   0.0000       0.102573         2.7911
  35   0.0000       0.106385         2.8949
  36   0.0000       0.126087         3.4310

MULLIKEN ATOMIC CHARGES
-----------------------
   0 C :   -0.530934
   1 C :   -0.233640
   2 C :   -0.273098
   3 C :   -0.369300
   4 C :    0.415000
   5 O :   -0.510267
   6 O :   -0.188069
   7 C :   -0.325274
   8 H :    0.158247
   9 H :    0.157438
  10 H :    0.160629
  11 H :    0.154296
  12 H :    0.146674
  13 H :    0.159564
  14 H :    0.160351
  15 H :    0.203507
  16 H :    0.180473
  17 H :    0.178200
  18 H :    0.178891
  19 H :    0.177314
Sum of atomic charges:   -0.0000000

LOEWDIN ATOMIC CHARGES
----------------------
   0 C :   -0.433246
   1 C :   -0.315654
   2 C :   -0.287992
   3 C :   -0.224851
   4 C :    0.366349
   5 O :   -0.489827
   6 O :   -0.610713
   7 C :   -0.040424
   8 H :    0.153949
   9 H :    0.153632
  10 H :    0.152560
  11 H :    0.156747
  12 H :    0.155891
  13 H :    0.164169
  14 H :    0.167526
  15 H :    0.194530
  16 H :    0.184086
  17 H :    0.188059
  18 H :    0.181619
  19 H :    0.183591

  Mayer bond orders larger than 0.100000
B(  0-C ,  1-C ) :   0.8814 B(  0-C ,  8-H ) :   0.9675 B(  0-C ,  9-H ) :   0.9789
B(  0-C , 10-H ) :   0.9781 B(  1-C ,  2-C ) :   0.8799 B(  1-C , 11-H ) :   0.9700
B(  1-C , 12-H ) :   0.9828 B(  2-C ,  3-C ) :   0.8821 B(  2-C , 13-H ) :   0.9667
B(  2-C , 14-H ) :   0.9723 B(  3-C ,  4-C ) :   1.0145 B(  3-C , 15-H ) :   0.9188
B(  3-C , 16-H ) :   0.9872 B(  4-C ,  5-O ) :   1.7729 B(  4-C ,  6-O ) :   1.0793
B(  6-O ,  7-C ) :   0.8290 B(  7-C , 17-H ) :   0.9603 B(  7-C , 18-H ) :   0.9558
B(  7-C , 19-H ) :   0.9588

Dispersion correction           -0.005065782
FINAL SINGLE POINT ENERGY      -386.234543726706

DIPOLE MOMENT
-------------

Method             : SCF
Type of density    : Electron Density
Multiplicity       :   1
Irrep              :   0
Energy             :  -386.2414914882918993 Eh
Relativity type    :
Basis              : AO
                                X                 Y                 Z
Electronic contribution:      8.592180884       2.503008894      -1.483124700
Nuclear contribution   :     -9.032303953      -3.543827546       1.930328475
                        -----------------------------------------
Total Dipole Moment    :     -0.440123069      -1.040818652       0.447203775
                        -----------------------------------------
Magnitude (a.u.)       :      1.215320122
Magnitude (Debye)      :      3.089098256

Rotational constants in cm-1:             0.152557             0.030186             0.027674
Rotational constants in MHz :          4573.549336           904.962441           829.649381

                             ****ORCA TERMINATED NORMALLY****
TOTAL RUN TIME: 0 days 0 hours 0 minutes 32 seconds 803 msec
