                         Program Version 6.0.0  -   RELEASE  -
|  1> ! r2scan-3c def2/J RI DEFGRID2 scfconv6 printgap
|  2> %output
|  3>     printlevel normal
|  4> end
|  5> * xyz 0 1
|  6> C -3.6665601903 -0.3886054335 0.4155400338
|  7> C -2.389127099 0.115525945 -0.2433119663
|  8> C -1.1509931581 -0.5128539827 0.3900109485
|  9> C 0.1279915983 -0.0023343219 -0.219438458
| 10> O 0.2105172652 0.9008210097 -1.0242385116
| 11> O 1.177879433 -0.6793662321 0.2374125966
| 12> C 2.4884994538 -0.2976526586 -0.2137162115
| 13> C 3.0635830164 0.8142456546 0.6503493012
| 14> H -3.7471912184 -1.4679254378 0.313514028
| 15> H -3.6731730988 -0.1405347442 1.4739391154
| 16> H -4.53585407 0.0671165975 -0.0501362072
| 17> H -2.3226279259 1.2010783611 -0.1513069467
| 18> H -2.4021043404 -0.1172328713 -1.3096660175
| 19> H -1.1642728476 -1.5990692377 0.2869281451
| 20> H -1.1143981538 -0.2894126347 1.4586845669
| 21> H 3.0818262533 -1.2090337185 -0.1347707156
| 22> H 2.4188699109 0.0222259866 -1.2578688467
| 23> H 3.0704791289 0.5109015831 1.6937231722
| 24> H 4.0784309688 1.0288769139 0.3321627489
| 25> H 2.4629621972 1.7151467364 0.5464687523
| 26> *
| 27>
| 28>                          ****END OF INPUT****

CARTESIAN COORDINATES (ANGSTROEM)
---------------------------------
  C     -3.666560   -0.388605    0.415540
  C     -2.389127    0.115526   -0.243312
  C     -1.150993   -0.512854    0.390011
  C      0.127992   -0.002334   -0.219438
  O      0.210517    0.900821   -1.024239
  O      1.177879   -0.679366    0.237413
  C      2.488499   -0.297653   -0.213716
  C      3.063583    0.814246    0.650349
  H     -3.747191   -1.467925    0.313514
  H     -3.673173   -0.140535    1.473939
  H     -4.535854    0.067117   -0.050136
  H     -2.322628    1.201078   -0.151307
  H     -2.402104   -0.117233   -1.309666
  H     -1.164273   -1.599069    0.286928
  H     -1.114398   -0.289413    1.458685
  H      3.081826   -1.209034   -0.134771
  H      2.418870    0.022226   -1.257869
  H      3.070479    0.510902    1.693723
  H      4.078431    1.028877    0.332163
  H      2.462962    1.715147    0.546469

 Total Charge           Charge          ....    0
 Multiplicity           Mult            ....    1
 Number of Electrons    NEL             ....   64
 Basis Dimension        Dim             ....  222

ORBITAL ENERGIES
----------------

  NO   OCC          E(Eh)            E(eV)
   0   2.0000     -18.994115      -516.8561
   1   2.0000     -18.928958      -515.0831
   2   2.0000     -10.151784      -276.2441
   3   2.0000     -10.090165      -274.5673
   4   2.0000     -10.041792      -273.2511
   5   2.0000     -10.028377      -272.8860
   6   2.0000     -10.028170      -272.8804
   7   2.0000     -10.019288      -272.6387
   8   2.0000      -1.069465       -29.1016
   9   2.0000      -0.975750       -26.5515
  10   2.0000      -0.770894       -20.9771
  11   2.0000      -0.739444       -20.1213
  12   2.0000      -0.680290       -18.5116
  13   2.0000      -0.621735       -16.9183
  14   2.0000      -0.561824       -15.2880
  15   2.0000      -0.518375       -14.1057
  16   2.0000      -0.473706       -12.8902
  17   2.0000      -0.458808       -12.4848
  18   2.0000      -0.441259       -12.0073
  19   2.0000      -0.420000       -11.4288
  20   2.0000      -0.411548       -11.1988
  21   2.0000      -0.385245       -10.4830
  22   2.0000      -0.378968       -10.3122
  23   2.0000      -0.364181        -9.9099
  24   2.0000      -0.351587        -9.5672
  25   2.0000      -0.336178        -9.1479
  26   2.0000      -0.321617        -8.7517
  27   2.0000      -0.312850        -8.5131
  28   2.0000      -0.303920        -8.2701
  29   2.0000      -0.303290        -8.2529
  30   2.0000      -0.269969        -7.3462
  31   2.0000      -0.236670        -6.4401
  32   0.0000      -0.012181        -0.3315
  33   0.0000       0.077313         2.1038
  34   0.0000       0.090175         2.4538
  35   0.0000       0.104077         2.8321
  36   0.0000       0.123408         3.3581

MULLIKEN ATOMIC CHARGES
-----------------------
   0 C :   -0.466218
   1 C :   -0.230504
   2 C :   -0.300862
   3 C :    0.376167
   4 O :   -0.431149
   5 O :   -0.177064
   6 C :   -0.139660
   7 C :   -0.468924
   8 H :    0.139913
   9 H :    0.140618
  10 H :    0.150494
  11 H :    0.153052
  12 H :    0.146271
  13 H :    0.161152
  14 H :    0.161420
  15 H :    0.147774
  16 H :    0.167835
  17 H :    0.151806
  18 H :    0.146554
  19 H :    0.171326
Sum of atomic charges:   -0.0000000

LOEWDIN ATOMIC CHARGES
----------------------
   0 C :   -0.422172
   1 C :   -0.297031
   2 C :   -0.232185
   3 C :    0.364514
   4 O :   -0.436428
   5 O :   -0.597207
   6 C :    0.026415
   7 C :   -0.390921
   8 H :    0.149593
   9 H :    0.149575
  10 H :    0.152585
  11 H :    0.163773
  12 H :    0.160591
  13 H :    0.181175
  14 H :    0.181890
  15 H :    0.177360
  16 H :    0.188017
  17 H :    0.156936
  18 H :    0.158960
  19 H :    0.164560

  Mayer bond orders larger than 0.100000
B(  0-C ,  1-C ) :   0.8762 B(  0-C ,  8-H ) :   0.9815 B(  0-C ,  9-H ) :   0.9844
B(  0-C , 10-H ) :   0.9760 B(  1-C ,  2-C ) :   0.9667 B(  1-C , 11-H ) :   0.9633
B(  1-C , 12-H ) :   0.9645 B(  2-C ,  3-C ) :   1.0055 B(  2-C , 13-H ) :   0.9539
B(  2-C , 14-H ) :   0.9379 B(  3-C ,  4-O ) :   1.8396 B(  3-C ,  5-O ) :   1.0712
B(  5-O ,  6-C ) :   0.8144 B(  6-C ,  7-C ) :   0.9367 B(  6-C , 15-H ) :   0.9622
B(  6-C , 16-H ) :   0.9690 B(  7-C , 17-H ) :   0.9742 B(  7-C , 18-H ) :   0.9648
B(  7-C , 19-H ) :   0.9721

Dispersion correction           -0.004898966
FINAL SINGLE POINT ENERGY      -386.236917106622

DIPOLE MOMENT
-------------

Method             : SCF
Type of density    : Electron Density
Multiplicity       :   1
Irrep              :   0
Energy             :  -386.2437174813342722 Eh
Relativity type    :
Basis              : AO
                                X                 Y                 Z
Electronic contribution:      3.836958968      -0.195716068      -2.516743526
Nuclear contribution   :     -3.588589819      -0.257397544       2.992034673
                        -----------------------------------------
Total Dipole Moment    :      0.248369149      -0.453113612       0.475291146
                        -----------------------------------------
Magnitude (a.u.)       :      0.702068980
Magnitude (Debye)      :      1.784517530

Rotational constants in cm-1:             0.204035             0.028235             0.026942
Rotational constants in MHz :          6116.813836           846.450008           807.697757

                             ****ORCA TERMINATED NORMALLY****
TOTAL RUN TIME: 0 days 0 hours 0 minutes 32 seconds 205 msec
