                         Program Version 6.0.0  -   RELEASE  -
|  1> ! r2scan-3c def2/J RI DEFGRID2 scfconv6 printgap
|  2> %output
|  3>     printlevel normal
|  4> end
|  5> %cpcm
|  6>     smd true
|  7>     smdsolvent "water"
|  8> end
|  9> * xyz 0 1
| 10> C -3.6665601903 -0.3886054335 0.4155400338
| 11> C -2.389127099 0.115525945 -0.2433119663
| 12> C -1.1509931581 -0.5128539827 0.3900109485
| 13> C 0.1279915983 -0.0023343219 -0.219438458
| 14> O 0.2105172652 0.9008210097 -1.0242385116
| 15> O 1.177879433 -0.6793662321 0.2374125966
| 16> C 2.4884994538 -0.2976526586 -0.2137162115
| 17> C 3.0635830164 0.8142456546 0.6503493012
| 18> H -3.7471912184 -1.4679254378 0.313514028
| 19> H -3.6731730988 -0.1405347442 1.4739391154
| 20> H -4.53585407 0.0671165975 -0.0501362072
| 21> H -2.3226279259 1.2010783611 -0.1513069467
| 22> H -2.4021043404 -0.1172328713 -1.3096660175
| 23> H -1.1642728476 -1.5990692377 0.2869281451
| 24> H -1.1143981538 -0.2894126347 1.4586845669
| 25> H 3.0818262533 -1.2090337185 -0.1347707156
| 26> H 2.4188699109 0.0222259866 -1.2578688467
| 27> H 3.0704791289 0.5109015831 1.6937231722
| 28> H 4.0784309688 1.0288769139 0.3321627489
| 29> H 2.4629621972 1.7151467364 0.5464687523
| 30> *
| 31>
| 32>                          ****END OF INPUT****

CARTESIAN COORDINATES (ANGSTROEM)
---------------------------------
  C     -3.666560   -0.388605    0.415540
  C     -2.389127    0.115526   -0.243312
  C     -1.150993   -0.512854    0.390011
  C      0.127992   -0.002334   -0.219438
  O      0.210517    0.900821   -1.024239
  O      1.177879   -0.679366    0.237413
  C      2.488499   -0.297653   -0.213716
  C      3.063583    0.814246    0.650349
  H     -3.747191   -1.467925    0.313514
  H     -3.673173   -0.140535    1.473939
  H     -4.535854    0.067117   -0.050136
  H     -2.322628    1.201078   -0.151307
  H     -2.402104   -0.117233   -1.309666
  H     -1.164273   -1.599069    0.286928
  H     -1.114398   -0.289413    1.458685
  H      3.081826   -1.209034   -0.134771
  H      2.418870    0.022226   -1.257869
  H      3.070479    0.510902    1.693723
  H      4.078431    1.028877    0.332163
  H      2.462962    1.715147    0.546469

 Total Charge           Charge          ....    0
 Multiplicity           Mult            ....    1
 Number of Electrons    NEL             ....   64
 Basis Dimension        Dim             ....  222

ORBITAL ENERGIES
----------------

  NO   OCC          E(Eh)            E(eV)
   0   2.0000     -19.000068      -517.0181
   1   2.0000     -18.944291      -515.5004
   2   2.0000     -10.162177      -276.5269
   3   2.0000     -10.082763      -274.3659
   4   2.0000     -10.035364      -273.0761
   5   2.0000     -10.023869      -272.7633
   6   2.0000     -10.017936      -272.6019
   7   2.0000     -10.010559      -272.4012
   8   2.0000      -1.077104       -29.3095
   9   2.0000      -0.988923       -26.9100
  10   2.0000      -0.766566       -20.8593
  11   2.0000      -0.733178       -19.9508
  12   2.0000      -0.674372       -18.3506
  13   2.0000      -0.616705       -16.7814
  14   2.0000      -0.556119       -15.1328
  15   2.0000      -0.517207       -14.0739
  16   2.0000      -0.474075       -12.9002
  17   2.0000      -0.461118       -12.5477
  18   2.0000      -0.447933       -12.1889
  19   2.0000      -0.417455       -11.3595
  20   2.0000      -0.409740       -11.1496
  21   2.0000      -0.378869       -10.3095
  22   2.0000      -0.373936       -10.1753
  23   2.0000      -0.358258        -9.7487
  24   2.0000      -0.346407        -9.4262
  25   2.0000      -0.336321        -9.1518
  26   2.0000      -0.316909        -8.6235
  27   2.0000      -0.307133        -8.3575
  28   2.0000      -0.302100        -8.2206
  29   2.0000      -0.298049        -8.1103
  30   2.0000      -0.275864        -7.5066
  31   2.0000      -0.252477        -6.8703
  32   0.0000      -0.020102        -0.5470
  33   0.0000       0.080308         2.1853
  34   0.0000       0.096203         2.6178
  35   0.0000       0.113148         3.0789
  36   0.0000       0.132163         3.5963

MULLIKEN ATOMIC CHARGES
-----------------------
   0 C :   -0.515687
   1 C :   -0.249062
   2 C :   -0.304294
   3 C :    0.414106
   4 O :   -0.512831
   5 O :   -0.198291
   6 C :   -0.144734
   7 C :   -0.494200
   8 H :    0.155746
   9 H :    0.156639
  10 H :    0.160098
  11 H :    0.153408
  12 H :    0.154938
  13 H :    0.185443
  14 H :    0.190889
  15 H :    0.173315
  16 H :    0.171088
  17 H :    0.165510
  18 H :    0.169751
  19 H :    0.168168
Sum of atomic charges:   -0.0000000

LOEWDIN ATOMIC CHARGES
----------------------
   0 C :   -0.426943
   1 C :   -0.300154
   2 C :   -0.229161
   3 C :    0.375888
   4 O :   -0.495247
   5 O :   -0.601263
   6 C :    0.030887
   7 C :   -0.393797
   8 H :    0.154402
   9 H :    0.154382
  10 H :    0.154822
  11 H :    0.161340
  12 H :    0.160392
  13 H :    0.191613
  14 H :    0.193853
  15 H :    0.188509
  16 H :    0.189140
  17 H :    0.161803
  18 H :    0.167487
  19 H :    0.162047

  Mayer bond orders larger than 0.100000
B(  0-C ,  1-C ) :   0.8786 B(  0-C ,  8-H ) :   0.9792 B(  0-C ,  9-H ) :   0.9816
B(  0-C , 10-H ) :   0.9729 B(  1-C ,  2-C ) :   0.9430 B(  1-C , 11-H ) :   0.9645
B(  1-C , 12-H ) :   0.9672 B(  2-C ,  3-C ) :   1.0147 B(  2-C , 13-H ) :   0.9411
B(  2-C , 14-H ) :   0.9237 B(  3-C ,  4-O ) :   1.7775 B(  3-C ,  5-O ) :   1.0927
B(  5-O ,  6-C ) :   0.7964 B(  6-C ,  7-C ) :   0.9362 B(  6-C , 15-H ) :   0.9528
B(  6-C , 16-H ) :   0.9648 B(  7-C , 17-H ) :   0.9701 B(  7-C , 18-H ) :   0.9600
B(  7-C , 19-H ) :   0.9696

Dispersion correction           -0.004898966
FINAL SINGLE POINT ENERGY      -386.241832395699

DIPOLE MOMENT
-------------

Method             : SCF
Type of density    : Electron Density
Multiplicity       :   1
Irrep              :   0
Energy             :  -386.2486327704118025 Eh
Relativity type    :
Basis              : AO
                                X                 Y                 Z
Electronic contribution:      3.921769522      -0.474793465      -2.264325503
Nuclear contribution   :     -3.588589819      -0.257397544       2.992034673
                        -----------------------------------------
Total Dipole Moment    :      0.333179703      -0.732191009       0.727709170
                        -----------------------------------------
Magnitude (a.u.)       :      1.084745603
Magnitude (Debye)      :      2.757204205

Rotational constants in cm-1:             0.204035             0.028235             0.026942
Rotational constants in MHz :          6116.813836           846.450008           807.697757

                             ****ORCA TERMINATED NORMALLY****
TOTAL RUN TIME: 0 days 0 hours 0 minutes 37 seconds 854 msec
