                         Program Version 6.0.0  -   RELEASE  -
|  1> ! pbe def2-sv(p) def2/J RI DEFGRID1 loosescf d4 GCP(DFT/SV(P)) printgap
|  2> %output
|  3>     printlevel normal
|  4> end
|  5> * xyz 0 1
|  6> C -2.0213274596 -1.5645457373 0.0311226728
|  7> C -2.3882948804 -0.0920992824 0.169398534
|  8> C -1.4148444891 0.8105718038 -0.5992451076
|  9> C -0.0416343414 0.7442415891 0.017550134
| 10> O 0.2270477489 1.1038451609 1.1451831214
| 11> O 0.8509999606 0.2421991026 -0.826382581
| 12> C 2.2082739352 0.089322283 -0.3789518904
| 13> C 2.3951461333 -1.2161793281 0.3791924417
| 14> H -2.7452131893 -2.1851645828 0.5524774708
| 15> H -2.0038647729 -1.8566485966 -1.0160624437
| 16> H -1.0382188738 -1.7548699861 0.4569127363
| 17> H -2.3733182172 0.1952154069 1.2226314292
| 18> H -3.3946943179 0.0724630829 -0.2164778283
| 19> H -1.7571755279 1.8443401436 -0.5382445409
| 20> H -1.3459587083 0.5047248752 -1.6422244748
| 21> H 2.8013707966 0.1059082735 -1.293642776
| 22> H 2.4639293324 0.9424943438 0.2568910255
| 23> H 3.4415488023 -1.3337861242 0.6409523558
| 24> H 1.803504943 -1.2043483219 1.2922336584
| 25> H 2.0823552279 -2.0553220174 -0.2365583434
| 26> *
| 27>
| 28>                          ****END OF INPUT****

CARTESIAN COORDINATES (ANGSTROEM)
---------------------------------
  C     -2.021327   -1.564546    0.031123
  C     -2.388295   -0.092099    0.169399
  C     -1.414844    0.810572   -0.599245
  C     -0.041634    0.744242    0.017550
  O      0.227048    1.103845    1.145183
  O      0.851000    0.242199   -0.826383
  C      2.208274    0.089322   -0.378952
  C      2.395146   -1.216179    0.379192
  H     -2.745213   -2.185165    0.552477
  H     -2.003865   -1.856649   -1.016062
  H     -1.038219   -1.754870    0.456913
  H     -2.373318    0.195215    1.222631
  H     -3.394694    0.072463   -0.216478
  H     -1.757176    1.844340   -0.538245
  H     -1.345959    0.504725   -1.642224
  H      2.801371    0.105908   -1.293643
  H      2.463929    0.942494    0.256891
  H      3.441549   -1.333786    0.640952
  H      1.803505   -1.204348    1.292234
  H      2.082355   -2.055322   -0.236558

 Total Charge           Charge          ....    0
 Multiplicity           Mult            ....    1
 Number of Electrons    NEL             ....   64
 Basis Dimension        Dim             ....  136

ORBITAL ENERGIES
----------------

  NO   OCC          E(Eh)            E(eV)
   0   2.0000     -18.797773      -511.5134
   1   2.0000     -18.730590      -509.6853
   2   2.0000     -10.004075      -272.2247
   3   2.0000      -9.946398      -270.6552
   4   2.0000      -9.895427      -269.2682
   5   2.0000      -9.892527      -269.1893
   6   2.0000      -9.887020      -269.0395
   7   2.0000      -9.878323      -268.8028
   8   2.0000      -1.003899       -27.3175
   9   2.0000      -0.907937       -24.7062
  10   2.0000      -0.727910       -19.8074
  11   2.0000      -0.696612       -18.9558
  12   2.0000      -0.636256       -17.3134
  13   2.0000      -0.592193       -16.1144
  14   2.0000      -0.532995       -14.5035
  15   2.0000      -0.491956       -13.3868
  16   2.0000      -0.452428       -12.3112
  17   2.0000      -0.433725       -11.8023
  18   2.0000      -0.424914       -11.5625
  19   2.0000      -0.396023       -10.7763
  20   2.0000      -0.388576       -10.5737
  21   2.0000      -0.375643       -10.2218
  22   2.0000      -0.362426        -9.8621
  23   2.0000      -0.351709        -9.5705
  24   2.0000      -0.338701        -9.2165
  25   2.0000      -0.330067        -8.9816
  26   2.0000      -0.306083        -8.3289
  27   2.0000      -0.299049        -8.1375
  28   2.0000      -0.297592        -8.0979
  29   2.0000      -0.287296        -7.8177
  30   2.0000      -0.255462        -6.9515
  31   2.0000      -0.216792        -5.8992
  32   0.0000      -0.020525        -0.5585
  33   0.0000       0.036506         0.9934
  34   0.0000       0.057532         1.5655
  35   0.0000       0.070063         1.9065
  36   0.0000       0.079655         2.1675

MULLIKEN ATOMIC CHARGES
-----------------------
   0 C :   -0.292062
   1 C :   -0.207841
   2 C :   -0.112026
   3 C :    0.087629
   4 O :   -0.213012
   5 O :   -0.234753
   6 C :   -0.014049
   7 C :   -0.310372
   8 H :    0.107845
   9 H :    0.100253
  10 H :    0.118204
  11 H :    0.108043
  12 H :    0.093845
  13 H :    0.110341
  14 H :    0.092071
  15 H :    0.101391
  16 H :    0.106876
  17 H :    0.112126
  18 H :    0.130616
  19 H :    0.114875
Sum of atomic charges:   -0.0000000

LOEWDIN ATOMIC CHARGES
----------------------
   0 C :   -0.343361
   1 C :   -0.225671
   2 C :   -0.245229
   3 C :    0.036861
   4 O :   -0.175515
   5 O :   -0.065658
   6 C :   -0.112884
   7 C :   -0.357794
   8 H :    0.121762
   9 H :    0.118292
  10 H :    0.119621
  11 H :    0.124149
  12 H :    0.118206
  13 H :    0.140588
  14 H :    0.126129
  15 H :    0.116828
  16 H :    0.119172
  17 H :    0.130225
  18 H :    0.130121
  19 H :    0.124161

  Mayer bond orders larger than 0.100000
B(  0-C ,  1-C ) :   1.1533 B(  0-C ,  8-H ) :   0.9510 B(  0-C ,  9-H ) :   0.9536
B(  0-C , 10-H ) :   0.9470 B(  1-C ,  2-C ) :   1.1130 B(  1-C , 11-H ) :   0.9218
B(  1-C , 12-H ) :   0.9289 B(  2-C ,  3-C ) :   1.0208 B(  2-C , 13-H ) :   0.8946
B(  2-C , 14-H ) :   0.9093 B(  3-C ,  4-O ) :   2.0358 B(  3-C ,  5-O ) :   1.2142
B(  5-O ,  6-C ) :   0.9241 B(  6-C ,  7-C ) :   1.1740 B(  6-C , 15-H ) :   0.9374
B(  6-C , 16-H ) :   0.9145 B(  7-C , 17-H ) :   0.9435 B(  7-C , 18-H ) :   0.9429
B(  7-C , 19-H ) :   0.9473

Dispersion correction           -0.015589743
FINAL SINGLE POINT ENERGY      -385.458507740474

DIPOLE MOMENT
-------------

Method             : SCF
Type of density    : Electron Density
Multiplicity       :   1
Irrep              :   0
Energy             :  -385.5333190600200624 Eh
Relativity type    :
Basis              : AO
                                X                 Y                 Z
Electronic contribution:      2.056919792       5.916072495      -0.062999747
Nuclear contribution   :     -1.922017850      -6.289205586      -0.484162445
                        -----------------------------------------
Total Dipole Moment    :      0.134901942      -0.373133090      -0.547162192
                        -----------------------------------------
Magnitude (a.u.)       :      0.675879650
Magnitude (Debye)      :      1.717949542

Rotational constants in cm-1:             0.108100             0.042127             0.036967
Rotational constants in MHz :          3240.768906          1262.943955          1108.241059

                             ****ORCA TERMINATED NORMALLY****
TOTAL RUN TIME: 0 days 0 hours 0 minutes 10 seconds 971 msec
