                         Program Version 6.0.0  -   RELEASE  -
|  1> ! r2scan-3c def2/J RI DEFGRID2 scfconv6 printgap
|  2> %output
|  3>     printlevel normal
|  4> end
|  5> * xyz 0 1
|  6> C 2.9952834056 -0.7512753643 -0.1468633227
|  7> C 1.5457587645 -0.4119331039 0.1809784705
|  8> C 1.1940892749 1.007952977 -0.2581486358
|  9> C -0.200749297 1.4697625879 0.1678907871
| 10> C -1.3460788513 0.7507546621 -0.5285195521
| 11> Cl -1.7479705168 -0.8243171386 0.248799218
| 12> H 3.2291168035 -1.7667108348 0.1634755807
| 13> H 3.6722970251 -0.0708393481 0.364894886
| 14> H 3.1722851196 -0.669993319 -1.2170172548
| 15> H 0.8904968654 -1.1285552178 -0.31556043
| 16> H 1.3846962561 -0.5078994913 1.2573225856
| 17> H 1.2801312917 1.0796891798 -1.344527208
| 18> H 1.9238629538 1.6947333168 0.1764481449
| 19> H -0.298044656 2.5295433809 -0.0771422561
| 20> H -0.310004591 1.366864391 1.2487061696
| 21> H -2.2642591731 1.3325342529 -0.4747055917
| 22> H -1.1069219427 0.5246564396 -1.5660997606
| 23> *
| 24>
| 25>                          ****END OF INPUT****

CARTESIAN COORDINATES (ANGSTROEM)
---------------------------------
  C      2.995283   -0.751275   -0.146863
  C      1.545759   -0.411933    0.180978
  C      1.194089    1.007953   -0.258149
  C     -0.200749    1.469763    0.167891
  C     -1.346079    0.750755   -0.528520
  Cl    -1.747971   -0.824317    0.248799
  H      3.229117   -1.766711    0.163476
  H      3.672297   -0.070839    0.364895
  H      3.172285   -0.669993   -1.217017
  H      0.890497   -1.128555   -0.315560
  H      1.384696   -0.507899    1.257323
  H      1.280131    1.079689   -1.344527
  H      1.923863    1.694733    0.176448
  H     -0.298045    2.529543   -0.077142
  H     -0.310005    1.366864    1.248706
  H     -2.264259    1.332534   -0.474706
  H     -1.106922    0.524656   -1.566100

 Total Charge           Charge          ....    0
 Multiplicity           Mult            ....    1
 Number of Electrons    NEL             ....   58
 Basis Dimension        Dim             ....  177

ORBITAL ENERGIES
----------------

  NO   OCC          E(Eh)            E(eV)
   0   2.0000    -101.196192     -2753.6884
   1   2.0000     -10.091859      -274.6134
   2   2.0000     -10.041452      -273.2418
   3   2.0000     -10.030338      -272.9394
   4   2.0000     -10.021150      -272.6894
   5   2.0000     -10.014552      -272.5098
   6   2.0000      -9.352364      -254.4908
   7   2.0000      -7.098549      -193.1613
   8   2.0000      -7.088480      -192.8873
   9   2.0000      -7.088325      -192.8831
  10   2.0000      -0.821124       -22.3439
  11   2.0000      -0.763200       -20.7677
  12   2.0000      -0.711125       -19.3507
  13   2.0000      -0.639240       -17.3946
  14   2.0000      -0.575900       -15.6710
  15   2.0000      -0.541738       -14.7414
  16   2.0000      -0.452926       -12.3247
  17   2.0000      -0.432542       -11.7701
  18   2.0000      -0.423107       -11.5133
  19   2.0000      -0.390647       -10.6301
  20   2.0000      -0.379061       -10.3148
  21   2.0000      -0.363843        -9.9007
  22   2.0000      -0.340937        -9.2774
  23   2.0000      -0.328938        -8.9509
  24   2.0000      -0.311920        -8.4878
  25   2.0000      -0.297693        -8.1006
  26   2.0000      -0.293709        -7.9922
  27   2.0000      -0.262553        -7.1444
  28   2.0000      -0.254801        -6.9335
  29   0.0000       0.007523         0.2047
  30   0.0000       0.084803         2.3076
  31   0.0000       0.104814         2.8521
  32   0.0000       0.112346         3.0571
  33   0.0000       0.115614         3.1460

MULLIKEN ATOMIC CHARGES
-----------------------
   0 C :   -0.471042
   1 C :   -0.238683
   2 C :   -0.299070
   3 C :   -0.241824
   4 C :   -0.179928
   5 Cl:   -0.201011
   6 H :    0.148031
   7 H :    0.140672
   8 H :    0.138472
   9 H :    0.157159
  10 H :    0.143474
  11 H :    0.138961
  12 H :    0.140692
  13 H :    0.146824
  14 H :    0.158436
  15 H :    0.162550
  16 H :    0.156288
Sum of atomic charges:    0.0000000

LOEWDIN ATOMIC CHARGES
----------------------
   0 C :   -0.425896
   1 C :   -0.326184
   2 C :   -0.311387
   3 C :   -0.326668
   4 C :   -0.318347
   5 Cl:   -0.004927
   6 H :    0.151213
   7 H :    0.148490
   8 H :    0.149185
   9 H :    0.157106
  10 H :    0.153444
  11 H :    0.153338
  12 H :    0.156405
  13 H :    0.162232
  14 H :    0.165387
  15 H :    0.158124
  16 H :    0.158488

  Mayer bond orders larger than 0.100000
B(  0-C ,  1-C ) :   0.9058 B(  0-C ,  6-H ) :   0.9746 B(  0-C ,  7-H ) :   0.9861
B(  0-C ,  8-H ) :   0.9811 B(  1-C ,  2-C ) :   0.9153 B(  1-C ,  9-H ) :   0.9561
B(  1-C , 10-H ) :   0.9726 B(  2-C ,  3-C ) :   0.9115 B(  2-C , 11-H ) :   0.9828
B(  2-C , 12-H ) :   0.9756 B(  3-C ,  4-C ) :   0.8976 B(  3-C , 13-H ) :   0.9573
B(  3-C , 14-H ) :   0.9755 B(  4-C ,  5-Cl) :   0.9785 B(  4-C , 15-H ) :   0.9545
B(  4-C , 16-H ) :   0.9709

Dispersion correction           -0.004441037
FINAL SINGLE POINT ENERGY      -657.265099344677

DIPOLE MOMENT
-------------

Method             : SCF
Type of density    : Electron Density
Multiplicity       :   1
Irrep              :   0
Energy             :  -657.2710665733186488 Eh
Relativity type    :
Basis              : AO
                                X                 Y                 Z
Electronic contribution:    -12.931880351      -4.505174853       1.737020640
Nuclear contribution   :     13.204172635       5.219354432      -2.007824315
                        -----------------------------------------
Total Dipole Moment    :      0.272292284       0.714179578      -0.270803676
                        -----------------------------------------
Magnitude (a.u.)       :      0.810882352
Magnitude (Debye)      :      2.061099140

Rotational constants in cm-1:             0.148335             0.048414             0.038941
Rotational constants in MHz :          4446.983902          1451.428131          1167.423145

                             ****ORCA TERMINATED NORMALLY****
TOTAL RUN TIME: 0 days 0 hours 0 minutes 19 seconds 432 msec
