                         Program Version 6.0.0  -   RELEASE  -
|  1> ! r2scan-3c def2/J RI DEFGRID2 scfconv6 printgap
|  2> %output
|  3>     printlevel normal
|  4> end
|  5> %cpcm
|  6>     smd true
|  7>     smdsolvent "water"
|  8> end
|  9> * xyz 0 1
| 10> C 2.9952834056 -0.7512753643 -0.1468633227
| 11> C 1.5457587645 -0.4119331039 0.1809784705
| 12> C 1.1940892749 1.007952977 -0.2581486358
| 13> C -0.200749297 1.4697625879 0.1678907871
| 14> C -1.3460788513 0.7507546621 -0.5285195521
| 15> Cl -1.7479705168 -0.8243171386 0.248799218
| 16> H 3.2291168035 -1.7667108348 0.1634755807
| 17> H 3.6722970251 -0.0708393481 0.364894886
| 18> H 3.1722851196 -0.669993319 -1.2170172548
| 19> H 0.8904968654 -1.1285552178 -0.31556043
| 20> H 1.3846962561 -0.5078994913 1.2573225856
| 21> H 1.2801312917 1.0796891798 -1.344527208
| 22> H 1.9238629538 1.6947333168 0.1764481449
| 23> H -0.298044656 2.5295433809 -0.0771422561
| 24> H -0.310004591 1.366864391 1.2487061696
| 25> H -2.2642591731 1.3325342529 -0.4747055917
| 26> H -1.1069219427 0.5246564396 -1.5660997606
| 27> *
| 28>
| 29>                          ****END OF INPUT****

CARTESIAN COORDINATES (ANGSTROEM)
---------------------------------
  C      2.995283   -0.751275   -0.146863
  C      1.545759   -0.411933    0.180978
  C      1.194089    1.007953   -0.258149
  C     -0.200749    1.469763    0.167891
  C     -1.346079    0.750755   -0.528520
  Cl    -1.747971   -0.824317    0.248799
  H      3.229117   -1.766711    0.163476
  H      3.672297   -0.070839    0.364895
  H      3.172285   -0.669993   -1.217017
  H      0.890497   -1.128555   -0.315560
  H      1.384696   -0.507899    1.257323
  H      1.280131    1.079689   -1.344527
  H      1.923863    1.694733    0.176448
  H     -0.298045    2.529543   -0.077142
  H     -0.310005    1.366864    1.248706
  H     -2.264259    1.332534   -0.474706
  H     -1.106922    0.524656   -1.566100

 Total Charge           Charge          ....    0
 Multiplicity           Mult            ....    1
 Number of Electrons    NEL             ....   58
 Basis Dimension        Dim             ....  177

ORBITAL ENERGIES
----------------

  NO   OCC          E(Eh)            E(eV)
   0   2.0000    -101.195745     -2753.6762
   1   2.0000     -10.080059      -274.2924
   2   2.0000     -10.027157      -272.8528
   3   2.0000     -10.016813      -272.5713
   4   2.0000     -10.013211      -272.4733
   5   2.0000     -10.006224      -272.2832
   6   2.0000      -9.352321      -254.4896
   7   2.0000      -7.098106      -193.1493
   8   2.0000      -7.088615      -192.8910
   9   2.0000      -7.088430      -192.8860
  10   2.0000      -0.815735       -22.1973
  11   2.0000      -0.753975       -20.5167
  12   2.0000      -0.701896       -19.0996
  13   2.0000      -0.629167       -17.1205
  14   2.0000      -0.565656       -15.3923
  15   2.0000      -0.530713       -14.4414
  16   2.0000      -0.440929       -11.9983
  17   2.0000      -0.421421       -11.4674
  18   2.0000      -0.412351       -11.2206
  19   2.0000      -0.382205       -10.4003
  20   2.0000      -0.368663       -10.0318
  21   2.0000      -0.354967        -9.6592
  22   2.0000      -0.331353        -9.0166
  23   2.0000      -0.317899        -8.6505
  24   2.0000      -0.304667        -8.2904
  25   2.0000      -0.287263        -7.8168
  26   2.0000      -0.283844        -7.7238
  27   2.0000      -0.261507        -7.1160
  28   2.0000      -0.252320        -6.8660
  29   0.0000       0.013118         0.3570
  30   0.0000       0.099490         2.7073
  31   0.0000       0.113476         3.0878
  32   0.0000       0.122275         3.3273
  33   0.0000       0.128092         3.4856

MULLIKEN ATOMIC CHARGES
-----------------------
   0 C :   -0.512910
   1 C :   -0.255780
   2 C :   -0.298756
   3 C :   -0.258521
   4 C :   -0.193797
   5 Cl:   -0.249540
   6 H :    0.154751
   7 H :    0.153550
   8 H :    0.151426
   9 H :    0.153780
  10 H :    0.149758
  11 H :    0.153035
  12 H :    0.150805
  13 H :    0.167743
  14 H :    0.164472
  15 H :    0.187794
  16 H :    0.182191
Sum of atomic charges:   -0.0000000

LOEWDIN ATOMIC CHARGES
----------------------
   0 C :   -0.434958
   1 C :   -0.329728
   2 C :   -0.312090
   3 C :   -0.324944
   4 C :   -0.312449
   5 Cl:   -0.037378
   6 H :    0.151823
   7 H :    0.151703
   8 H :    0.152171
   9 H :    0.154096
  10 H :    0.152958
  11 H :    0.158195
  12 H :    0.159094
  13 H :    0.170960
  14 H :    0.165570
  15 H :    0.166990
  16 H :    0.167988

  Mayer bond orders larger than 0.100000
B(  0-C ,  1-C ) :   0.8983 B(  0-C ,  6-H ) :   0.9723 B(  0-C ,  7-H ) :   0.9834
B(  0-C ,  8-H ) :   0.9794 B(  1-C ,  2-C ) :   0.9047 B(  1-C ,  9-H ) :   0.9586
B(  1-C , 10-H ) :   0.9752 B(  2-C ,  3-C ) :   0.9014 B(  2-C , 11-H ) :   0.9775
B(  2-C , 12-H ) :   0.9760 B(  3-C ,  4-C ) :   0.8930 B(  3-C , 13-H ) :   0.9527
B(  3-C , 14-H ) :   0.9811 B(  4-C ,  5-Cl) :   0.9396 B(  4-C , 15-H ) :   0.9486
B(  4-C , 16-H ) :   0.9645

Dispersion correction           -0.004441037
FINAL SINGLE POINT ENERGY      -657.266268836086

DIPOLE MOMENT
-------------

Method             : SCF
Type of density    : Electron Density
Multiplicity       :   1
Irrep              :   0
Energy             :  -657.2722360647273945 Eh
Relativity type    :
Basis              : AO
                                X                 Y                 Z
Electronic contribution:    -12.883556798      -4.214179691       1.598128850
Nuclear contribution   :     13.204172635       5.219354432      -2.007824315
                        -----------------------------------------
Total Dipole Moment    :      0.320615837       1.005174741      -0.409695465
                        -----------------------------------------
Magnitude (a.u.)       :      1.131822048
Magnitude (Debye)      :      2.876863019

Rotational constants in cm-1:             0.148335             0.048414             0.038941
Rotational constants in MHz :          4446.983902          1451.428131          1167.423145

                             ****ORCA TERMINATED NORMALLY****
TOTAL RUN TIME: 0 days 0 hours 0 minutes 25 seconds 222 msec
