                         Program Version 6.0.0  -   RELEASE  -
|  1> ! pbe def2-sv(p) def2/J RI DEFGRID1 loosescf d4 GCP(DFT/SV(P)) printgap
|  2> %output
|  3>     printlevel normal
|  4> end
|  5> * xyz 0 1
|  6> C -3.6462468858 -0.618171812 0.2460965436
|  7> C -2.3461313642 -0.1734968785 -0.4111642676
|  8> C -1.1812060755 -0.2138085953 0.5738410395
|  9> C 0.1093214854 0.2536864328 -0.0456399793
| 10> O 0.2293771204 0.6945251149 -1.1687147943
| 11> O 1.1208217657 0.1364555505 0.8105300275
| 12> C 2.4331475341 0.5325002086 0.3767959137
| 13> C 3.1397305296 -0.6035749448 -0.3468346036
| 14> H -3.8950785272 0.0347394928 1.0789315145
| 15> H -4.4611441086 -0.5860810169 -0.4716383363
| 16> H -3.5560113472 -1.6350736272 0.6196641651
| 17> H -2.4495769514 0.8421612892 -0.7973458143
| 18> H -2.1171289031 -0.8192066601 -1.260907435
| 19> H -1.024474929 -1.2251259626 0.953141399
| 20> H -1.383543011 0.4266061013 1.435039002
| 21> H 2.3360024991 1.40405269 -0.277699091
| 22> H 2.954538775 0.8036472088 1.2951943085
| 23> H 2.6061399123 -0.8508409976 -1.2619122159
| 24> H 4.1490444177 -0.2959678627 -0.5999009127
| 25> H 3.1808000779 -1.4839225274 0.2888041474
| 26> *
| 27>
| 28>                          ****END OF INPUT****

CARTESIAN COORDINATES (ANGSTROEM)
---------------------------------
  C     -3.646247   -0.618172    0.246097
  C     -2.346131   -0.173497   -0.411164
  C     -1.181206   -0.213809    0.573841
  C      0.109321    0.253686   -0.045640
  O      0.229377    0.694525   -1.168715
  O      1.120822    0.136456    0.810530
  C      2.433148    0.532500    0.376796
  C      3.139731   -0.603575   -0.346835
  H     -3.895079    0.034739    1.078932
  H     -4.461144   -0.586081   -0.471638
  H     -3.556011   -1.635074    0.619664
  H     -2.449577    0.842161   -0.797346
  H     -2.117129   -0.819207   -1.260907
  H     -1.024475   -1.225126    0.953141
  H     -1.383543    0.426606    1.435039
  H      2.336002    1.404053   -0.277699
  H      2.954539    0.803647    1.295194
  H      2.606140   -0.850841   -1.261912
  H      4.149044   -0.295968   -0.599901
  H      3.180800   -1.483923    0.288804

 Total Charge           Charge          ....    0
 Multiplicity           Mult            ....    1
 Number of Electrons    NEL             ....   64
 Basis Dimension        Dim             ....  136

ORBITAL ENERGIES
----------------

  NO   OCC          E(Eh)            E(eV)
   0   2.0000     -18.794676      -511.4291
   1   2.0000     -18.733008      -509.7511
   2   2.0000     -10.005232      -272.2562
   3   2.0000      -9.945455      -270.6296
   4   2.0000      -9.897752      -269.3315
   5   2.0000      -9.886016      -269.0122
   6   2.0000      -9.885714      -269.0040
   7   2.0000      -9.876279      -268.7472
   8   2.0000      -1.002191       -27.2710
   9   2.0000      -0.909151       -24.7393
  10   2.0000      -0.725025       -19.7289
  11   2.0000      -0.696394       -18.9498
  12   2.0000      -0.638880       -17.3848
  13   2.0000      -0.587754       -15.9936
  14   2.0000      -0.528220       -14.3736
  15   2.0000      -0.491002       -13.3608
  16   2.0000      -0.452789       -12.3210
  17   2.0000      -0.438672       -11.9369
  18   2.0000      -0.419093       -11.4041
  19   2.0000      -0.400386       -10.8951
  20   2.0000      -0.391571       -10.6552
  21   2.0000      -0.370957       -10.0942
  22   2.0000      -0.361371        -9.8334
  23   2.0000      -0.350131        -9.5276
  24   2.0000      -0.336345        -9.1524
  25   2.0000      -0.322960        -8.7882
  26   2.0000      -0.309386        -8.4188
  27   2.0000      -0.300068        -8.1653
  28   2.0000      -0.291806        -7.9404
  29   2.0000      -0.287833        -7.8323
  30   2.0000      -0.254457        -6.9241
  31   2.0000      -0.218899        -5.9565
  32   0.0000      -0.018074        -0.4918
  33   0.0000       0.036326         0.9885
  34   0.0000       0.053534         1.4567
  35   0.0000       0.079621         2.1666
  36   0.0000       0.081542         2.2189

MULLIKEN ATOMIC CHARGES
-----------------------
   0 C :   -0.253162
   1 C :   -0.196729
   2 C :   -0.182992
   3 C :    0.134851
   4 O :   -0.209568
   5 O :   -0.243056
   6 C :   -0.009744
   7 C :   -0.304531
   8 H :    0.095616
   9 H :    0.105360
  10 H :    0.095357
  11 H :    0.099967
  12 H :    0.096626
  13 H :    0.107070
  14 H :    0.109327
  15 H :    0.106064
  16 H :    0.100119
  17 H :    0.126086
  18 H :    0.111342
  19 H :    0.112000
Sum of atomic charges:    0.0000000

LOEWDIN ATOMIC CHARGES
----------------------
   0 C :   -0.339563
   1 C :   -0.230553
   2 C :   -0.251444
   3 C :    0.039915
   4 O :   -0.167134
   5 O :   -0.073647
   6 C :   -0.112627
   7 C :   -0.356712
   8 H :    0.116431
   9 H :    0.120993
  10 H :    0.116229
  11 H :    0.122382
  12 H :    0.121100
  13 H :    0.137052
  14 H :    0.139441
  15 H :    0.118434
  16 H :    0.116219
  17 H :    0.130030
  18 H :    0.129735
  19 H :    0.123719

  Mayer bond orders larger than 0.100000
B(  0-C ,  1-C ) :   1.1530 B(  0-C ,  8-H ) :   0.9536 B(  0-C ,  9-H ) :   0.9541
B(  0-C , 10-H ) :   0.9532 B(  1-C ,  2-C ) :   1.1332 B(  1-C , 11-H ) :   0.9259
B(  1-C , 12-H ) :   0.9288 B(  2-C ,  3-C ) :   1.0174 B(  2-C , 13-H ) :   0.9005
B(  2-C , 14-H ) :   0.8946 B(  3-C ,  4-O ) :   2.0384 B(  3-C ,  5-O ) :   1.2125
B(  5-O ,  6-C ) :   0.9244 B(  6-C ,  7-C ) :   1.1734 B(  6-C , 15-H ) :   0.9142
B(  6-C , 16-H ) :   0.9377 B(  7-C , 17-H ) :   0.9465 B(  7-C , 18-H ) :   0.9445
B(  7-C , 19-H ) :   0.9492

Dispersion correction           -0.014594072
FINAL SINGLE POINT ENERGY      -385.459012629453

DIPOLE MOMENT
-------------

Method             : SCF
Type of density    : Electron Density
Multiplicity       :   1
Irrep              :   0
Energy             :  -385.5342433080593878 Eh
Relativity type    :
Basis              : AO
                                X                 Y                 Z
Electronic contribution:      3.677090236       2.940356959      -0.374950470
Nuclear contribution   :     -3.414074521      -3.163383494       0.934141450
                        -----------------------------------------
Total Dipole Moment    :      0.263015715      -0.223026535       0.559190980
                        -----------------------------------------
Magnitude (a.u.)       :      0.656972338
Magnitude (Debye)      :      1.669890976

Rotational constants in cm-1:             0.200602             0.028341             0.027098
Rotational constants in MHz :          6013.902592           849.637672           812.386225

                             ****ORCA TERMINATED NORMALLY****
TOTAL RUN TIME: 0 days 0 hours 0 minutes 10 seconds 343 msec
