                         Program Version 6.0.0  -   RELEASE  -
|  1> ! r2scan-3c def2/J RI DEFGRID2 scfconv6 printgap
|  2> %output
|  3>     printlevel normal
|  4> end
|  5> * xyz 0 1
|  6> C -2.0065860505 -1.5714759636 0.0384253679
|  7> C -2.3780182086 -0.1010348042 0.1854838806
|  8> C -1.4213058045 0.8084313514 -0.5968253187
|  9> C -0.0418409958 0.7547334378 0.0066910928
| 10> O 0.2399043081 1.1472236989 1.1201705936
| 11> O 0.8395734995 0.2210768082 -0.8296352306
| 12> C 2.1994687486 0.0717671883 -0.3892494737
| 13> C 2.3840435431 -1.2139006652 0.40263449
| 14> H -2.0085499188 -1.8621152509 -1.0092964427
| 15> H -1.0144133457 -1.7580156458 0.4442448091
| 16> H -2.7172634353 -2.1960066185 0.5731134562
| 17> H -2.3481663892 0.1846881724 1.2388837483
| 18> H -3.3911966076 0.0593310198 -0.1841130695
| 19> H -1.7724143857 1.8390522651 -0.5349386123
| 20> H -1.3613616141 0.4985973298 -1.6391178329
| 21> H 2.7854007762 0.0596844692 -1.3085535309
| 22> H 2.4655036046 0.9401030525 0.2212554284
| 23> H 1.7998167288 -1.1732937429 1.3196050672
| 24> H 2.0610474747 -2.0674088546 -0.187613056
| 25> H 3.4317237163 -1.3313107022 0.6593163095
| 26> *
| 27>
| 28>                          ****END OF INPUT****

CARTESIAN COORDINATES (ANGSTROEM)
---------------------------------
  C     -2.006586   -1.571476    0.038425
  C     -2.378018   -0.101035    0.185484
  C     -1.421306    0.808431   -0.596825
  C     -0.041841    0.754733    0.006691
  O      0.239904    1.147224    1.120171
  O      0.839573    0.221077   -0.829635
  C      2.199469    0.071767   -0.389249
  C      2.384044   -1.213901    0.402634
  H     -2.008550   -1.862115   -1.009296
  H     -1.014413   -1.758016    0.444245
  H     -2.717263   -2.196007    0.573113
  H     -2.348166    0.184688    1.238884
  H     -3.391197    0.059331   -0.184113
  H     -1.772414    1.839052   -0.534939
  H     -1.361362    0.498597   -1.639118
  H      2.785401    0.059684   -1.308554
  H      2.465504    0.940103    0.221255
  H      1.799817   -1.173294    1.319605
  H      2.061047   -2.067409   -0.187613
  H      3.431724   -1.331311    0.659316

 Total Charge           Charge          ....    0
 Multiplicity           Mult            ....    1
 Number of Electrons    NEL             ....   64
 Basis Dimension        Dim             ....  222

ORBITAL ENERGIES
----------------

  NO   OCC          E(Eh)            E(eV)
   0   2.0000     -18.996823      -516.9298
   1   2.0000     -18.927058      -515.0314
   2   2.0000     -10.150923      -276.2207
   3   2.0000     -10.090998      -274.5900
   4   2.0000     -10.039914      -273.2000
   5   2.0000     -10.035829      -273.0888
   6   2.0000     -10.028886      -272.8999
   7   2.0000     -10.020622      -272.6750
   8   2.0000      -1.071165       -29.1479
   9   2.0000      -0.974845       -26.5269
  10   2.0000      -0.773693       -21.0532
  11   2.0000      -0.739386       -20.1197
  12   2.0000      -0.677490       -18.4354
  13   2.0000      -0.625995       -17.0342
  14   2.0000      -0.566699       -15.4207
  15   2.0000      -0.518626       -14.1125
  16   2.0000      -0.474071       -12.9001
  17   2.0000      -0.454171       -12.3586
  18   2.0000      -0.445100       -12.1118
  19   2.0000      -0.418678       -11.3928
  20   2.0000      -0.406575       -11.0635
  21   2.0000      -0.391242       -10.6462
  22   2.0000      -0.378082       -10.2881
  23   2.0000      -0.367103        -9.9894
  24   2.0000      -0.351713        -9.5706
  25   2.0000      -0.344964        -9.3870
  26   2.0000      -0.318232        -8.6595
  27   2.0000      -0.311329        -8.4717
  28   2.0000      -0.309597        -8.4246
  29   2.0000      -0.302846        -8.2409
  30   2.0000      -0.270953        -7.3730
  31   2.0000      -0.234973        -6.3939
  32   0.0000      -0.015587        -0.4241
  33   0.0000       0.074661         2.0316
  34   0.0000       0.087582         2.3832
  35   0.0000       0.110829         3.0158
  36   0.0000       0.117090         3.1862

MULLIKEN ATOMIC CHARGES
-----------------------
   0 C :   -0.491003
   1 C :   -0.226152
   2 C :   -0.302759
   3 C :    0.350714
   4 O :   -0.425652
   5 O :   -0.170594
   6 C :   -0.133036
   7 C :   -0.479661
   8 H :    0.148374
   9 H :    0.154469
  10 H :    0.148498
  11 H :    0.161139
  12 H :    0.146189
  13 H :    0.164529
  14 H :    0.162793
  15 H :    0.148126
  16 H :    0.167216
  17 H :    0.176150
  18 H :    0.153114
  19 H :    0.147549
Sum of atomic charges:   -0.0000000

LOEWDIN ATOMIC CHARGES
----------------------
   0 C :   -0.416842
   1 C :   -0.290742
   2 C :   -0.231422
   3 C :    0.353834
   4 O :   -0.436124
   5 O :   -0.595611
   6 C :    0.027070
   7 C :   -0.393084
   8 H :    0.151844
   9 H :    0.155088
  10 H :    0.152441
  11 H :    0.165740
  12 H :    0.153084
  13 H :    0.180672
  14 H :    0.176305
  15 H :    0.177874
  16 H :    0.187802
  17 H :    0.165730
  18 H :    0.157124
  19 H :    0.159214

  Mayer bond orders larger than 0.100000
B(  0-C ,  1-C ) :   0.9047 B(  0-C ,  8-H ) :   0.9806 B(  0-C ,  9-H ) :   0.9718
B(  0-C , 10-H ) :   0.9692 B(  1-C ,  2-C ) :   0.8833 B(  1-C , 11-H ) :   0.9727
B(  1-C , 12-H ) :   0.9650 B(  2-C ,  3-C ) :   0.9378 B(  2-C , 13-H ) :   0.9446
B(  2-C , 14-H ) :   1.0042 B(  3-C ,  4-O ) :   1.8330 B(  3-C ,  5-O ) :   1.0503
B(  5-O ,  6-C ) :   0.8276 B(  6-C ,  7-C ) :   0.9277 B(  6-C , 15-H ) :   0.9616
B(  6-C , 16-H ) :   0.9695 B(  7-C , 17-H ) :   0.9725 B(  7-C , 18-H ) :   0.9726
B(  7-C , 19-H ) :   0.9641

Dispersion correction           -0.005308846
FINAL SINGLE POINT ENERGY      -386.236578452002

DIPOLE MOMENT
-------------

Method             : SCF
Type of density    : Electron Density
Multiplicity       :   1
Irrep              :   0
Energy             :  -386.2429956205148187 Eh
Relativity type    :
Basis              : AO
                                X                 Y                 Z
Electronic contribution:      2.009659133       5.933038156      -0.227887571
Nuclear contribution   :     -1.925879613      -6.365524727      -0.377726250
                        -----------------------------------------
Total Dipole Moment    :      0.083779519      -0.432486571      -0.605613820
                        -----------------------------------------
Magnitude (a.u.)       :      0.748887002
Magnitude (Debye)      :      1.903519483

Rotational constants in cm-1:             0.107153             0.042471             0.037060
Rotational constants in MHz :          3212.366029          1273.254562          1111.027152

                             ****ORCA TERMINATED NORMALLY****
TOTAL RUN TIME: 0 days 0 hours 0 minutes 33 seconds 74 msec
