                         Program Version 6.0.0  -   RELEASE  -
|  1> ! r2scan-3c def2/J RI DEFGRID2 scfconv6 printgap
|  2> %output
|  3>     printlevel normal
|  4> end
|  5> %cpcm
|  6>     smd true
|  7>     smdsolvent "water"
|  8> end
|  9> * xyz 0 1
| 10> C -2.0065860505 -1.5714759636 0.0384253679
| 11> C -2.3780182086 -0.1010348042 0.1854838806
| 12> C -1.4213058045 0.8084313514 -0.5968253187
| 13> C -0.0418409958 0.7547334378 0.0066910928
| 14> O 0.2399043081 1.1472236989 1.1201705936
| 15> O 0.8395734995 0.2210768082 -0.8296352306
| 16> C 2.1994687486 0.0717671883 -0.3892494737
| 17> C 2.3840435431 -1.2139006652 0.40263449
| 18> H -2.0085499188 -1.8621152509 -1.0092964427
| 19> H -1.0144133457 -1.7580156458 0.4442448091
| 20> H -2.7172634353 -2.1960066185 0.5731134562
| 21> H -2.3481663892 0.1846881724 1.2388837483
| 22> H -3.3911966076 0.0593310198 -0.1841130695
| 23> H -1.7724143857 1.8390522651 -0.5349386123
| 24> H -1.3613616141 0.4985973298 -1.6391178329
| 25> H 2.7854007762 0.0596844692 -1.3085535309
| 26> H 2.4655036046 0.9401030525 0.2212554284
| 27> H 1.7998167288 -1.1732937429 1.3196050672
| 28> H 2.0610474747 -2.0674088546 -0.187613056
| 29> H 3.4317237163 -1.3313107022 0.6593163095
| 30> *
| 31>
| 32>                          ****END OF INPUT****

CARTESIAN COORDINATES (ANGSTROEM)
---------------------------------
  C     -2.006586   -1.571476    0.038425
  C     -2.378018   -0.101035    0.185484
  C     -1.421306    0.808431   -0.596825
  C     -0.041841    0.754733    0.006691
  O      0.239904    1.147224    1.120171
  O      0.839573    0.221077   -0.829635
  C      2.199469    0.071767   -0.389249
  C      2.384044   -1.213901    0.402634
  H     -2.008550   -1.862115   -1.009296
  H     -1.014413   -1.758016    0.444245
  H     -2.717263   -2.196007    0.573113
  H     -2.348166    0.184688    1.238884
  H     -3.391197    0.059331   -0.184113
  H     -1.772414    1.839052   -0.534939
  H     -1.361362    0.498597   -1.639118
  H      2.785401    0.059684   -1.308554
  H      2.465504    0.940103    0.221255
  H      1.799817   -1.173294    1.319605
  H      2.061047   -2.067409   -0.187613
  H      3.431724   -1.331311    0.659316

 Total Charge           Charge          ....    0
 Multiplicity           Mult            ....    1
 Number of Electrons    NEL             ....   64
 Basis Dimension        Dim             ....  222

ORBITAL ENERGIES
----------------

  NO   OCC          E(Eh)            E(eV)
   0   2.0000     -19.002990      -517.0976
   1   2.0000     -18.943081      -515.4674
   2   2.0000     -10.161867      -276.5185
   3   2.0000     -10.083204      -274.3779
   4   2.0000     -10.034781      -273.0603
   5   2.0000     -10.029175      -272.9077
   6   2.0000     -10.018309      -272.6121
   7   2.0000     -10.011679      -272.4316
   8   2.0000      -1.078871       -29.3576
   9   2.0000      -0.988762       -26.9056
  10   2.0000      -0.769466       -20.9382
  11   2.0000      -0.732665       -19.9368
  12   2.0000      -0.671763       -18.2796
  13   2.0000      -0.620827       -16.8936
  14   2.0000      -0.560243       -15.2450
  15   2.0000      -0.517287       -14.0761
  16   2.0000      -0.474716       -12.9177
  17   2.0000      -0.457387       -12.4461
  18   2.0000      -0.448166       -12.1952
  19   2.0000      -0.420752       -11.4492
  20   2.0000      -0.401647       -10.9294
  21   2.0000      -0.386142       -10.5075
  22   2.0000      -0.371523       -10.1097
  23   2.0000      -0.363437        -9.8896
  24   2.0000      -0.348799        -9.4913
  25   2.0000      -0.341831        -9.3017
  26   2.0000      -0.311179        -8.4676
  27   2.0000      -0.305226        -8.3056
  28   2.0000      -0.304015        -8.2727
  29   2.0000      -0.300479        -8.1765
  30   2.0000      -0.278845        -7.5878
  31   2.0000      -0.251076        -6.8321
  32   0.0000      -0.023844        -0.6488
  33   0.0000       0.077263         2.1024
  34   0.0000       0.094766         2.5787
  35   0.0000       0.120781         3.2866
  36   0.0000       0.124800         3.3960

MULLIKEN ATOMIC CHARGES
-----------------------
   0 C :   -0.532059
   1 C :   -0.226927
   2 C :   -0.321968
   3 C :    0.389992
   4 O :   -0.508309
   5 O :   -0.191707
   6 C :   -0.143156
   7 C :   -0.498584
   8 H :    0.164060
   9 H :    0.163705
  10 H :    0.161536
  11 H :    0.156716
  12 H :    0.165039
  13 H :    0.189370
  14 H :    0.178669
  15 H :    0.174203
  16 H :    0.171848
  17 H :    0.170631
  18 H :    0.166297
  19 H :    0.170644
Sum of atomic charges:   -0.0000000

LOEWDIN ATOMIC CHARGES
----------------------
   0 C :   -0.424145
   1 C :   -0.289471
   2 C :   -0.228945
   3 C :    0.363029
   4 O :   -0.495090
   5 O :   -0.598528
   6 C :    0.031581
   7 C :   -0.395118
   8 H :    0.156387
   9 H :    0.156539
  10 H :    0.156225
  11 H :    0.162832
  12 H :    0.160492
  13 H :    0.189249
  14 H :    0.183901
  15 H :    0.189218
  16 H :    0.189287
  17 H :    0.162872
  18 H :    0.162064
  19 H :    0.167623

  Mayer bond orders larger than 0.100000
B(  0-C ,  1-C ) :   0.8931 B(  0-C ,  8-H ) :   0.9778 B(  0-C ,  9-H ) :   0.9696
B(  0-C , 10-H ) :   0.9656 B(  1-C ,  2-C ) :   0.8716 B(  1-C , 11-H ) :   0.9751
B(  1-C , 12-H ) :   0.9612 B(  2-C ,  3-C ) :   0.9401 B(  2-C , 13-H ) :   0.9386
B(  2-C , 14-H ) :   0.9942 B(  3-C ,  4-O ) :   1.7641 B(  3-C ,  5-O ) :   1.0734
B(  5-O ,  6-C ) :   0.8092 B(  6-C ,  7-C ) :   0.9290 B(  6-C , 15-H ) :   0.9522
B(  6-C , 16-H ) :   0.9657 B(  7-C , 17-H ) :   0.9697 B(  7-C , 18-H ) :   0.9685
B(  7-C , 19-H ) :   0.9594

Dispersion correction           -0.005308846
FINAL SINGLE POINT ENERGY      -386.241762329233

DIPOLE MOMENT
-------------

Method             : SCF
Type of density    : Electron Density
Multiplicity       :   1
Irrep              :   0
Energy             :  -386.2481794977459799 Eh
Relativity type    :
Basis              : AO
                                X                 Y                 Z
Electronic contribution:      2.019290516       5.783875814      -0.548849550
Nuclear contribution   :     -1.925879613      -6.365524727      -0.377726250
                        -----------------------------------------
Total Dipole Moment    :      0.093410903      -0.581648913      -0.926575800
                        -----------------------------------------
Magnitude (a.u.)       :      1.097990787
Magnitude (Debye)      :      2.790870786

Rotational constants in cm-1:             0.107153             0.042471             0.037060
Rotational constants in MHz :          3212.366029          1273.254562          1111.027152

                             ****ORCA TERMINATED NORMALLY****
TOTAL RUN TIME: 0 days 0 hours 0 minutes 38 seconds 235 msec
