                         Program Version 6.0.0  -   RELEASE  -
|  1> ! r2scan-3c def2/J RI DEFGRID2 scfconv6 printgap
|  2> %output
|  3>     printlevel normal
|  4> end
|  5> * xyz 0 1
|  6> C -2.6665097265 -0.965909006 0.1534016643
|  7> C -2.9127586898 0.5357051634 0.2370686001
|  8> C -1.7665405139 1.3915717408 -0.3059261953
|  9> C -0.487898614 1.3315725727 0.5123998514
| 10> I 0.8924040912 -0.2529078823 -0.0696085987
| 11> H -2.3854853119 -1.2534889343 -0.8574902952
| 12> H -1.8777107059 -1.2783104453 0.8323861182
| 13> H -3.5705168007 -1.506412602 0.4233290915
| 14> H -3.1062100589 0.8143701619 1.2757721956
| 15> H -3.8078686092 0.7773270919 -0.3398444246
| 16> H -1.5681819451 1.1228511393 -1.3452157378
| 17> H -2.0956713091 2.4346882032 -0.2982497879
| 18> H -0.6942580551 1.1680396802 1.5666735926
| 19> H 0.0953830913 2.2402874692 0.3934373565
| 20> *
| 21>
| 22>                          ****END OF INPUT****

CARTESIAN COORDINATES (ANGSTROEM)
---------------------------------
  C     -2.666510   -0.965909    0.153402
  C     -2.912759    0.535705    0.237069
  C     -1.766541    1.391572   -0.305926
  C     -0.487899    1.331573    0.512400
  I      0.892404   -0.252908   -0.069609
  H     -2.385485   -1.253489   -0.857490
  H     -1.877711   -1.278310    0.832386
  H     -3.570517   -1.506413    0.423329
  H     -3.106210    0.814370    1.275772
  H     -3.807869    0.777327   -0.339844
  H     -1.568182    1.122851   -1.345216
  H     -2.095671    2.434688   -0.298250
  H     -0.694258    1.168040    1.566674
  H      0.095383    2.240287    0.393437

 Total Charge           Charge          ....    0
 Multiplicity           Mult            ....    1
 Number of Electrons    NEL             ....   58
 Basis Dimension        Dim             ....  157

ORBITAL ENERGIES
----------------

  NO   OCC          E(Eh)            E(eV)
   0   2.0000     -10.085115      -274.4299
   1   2.0000     -10.045073      -273.3403
   2   2.0000     -10.034873      -273.0628
   3   2.0000     -10.016886      -272.5733
   4   2.0000      -6.802352      -185.1014
   5   2.0000      -4.820866      -131.1824
   6   2.0000      -4.804888      -130.7476
   7   2.0000      -4.804509      -130.7373
   8   2.0000      -1.856268       -50.5116
   9   2.0000      -1.852157       -50.3997
  10   2.0000      -1.851852       -50.3915
  11   2.0000      -1.838942       -50.0402
  12   2.0000      -1.838902       -50.0391
  13   2.0000      -0.782946       -21.3051
  14   2.0000      -0.713446       -19.4139
  15   2.0000      -0.653301       -17.7772
  16   2.0000      -0.594405       -16.1746
  17   2.0000      -0.546382       -14.8678
  18   2.0000      -0.446979       -12.1629
  19   2.0000      -0.430707       -11.7201
  20   2.0000      -0.406239       -11.0543
  21   2.0000      -0.373615       -10.1666
  22   2.0000      -0.361166        -9.8278
  23   2.0000      -0.334723        -9.1083
  24   2.0000      -0.310236        -8.4419
  25   2.0000      -0.307656        -8.3717
  26   2.0000      -0.298110        -8.1120
  27   2.0000      -0.231082        -6.2881
  28   2.0000      -0.226947        -6.1756
  29   0.0000      -0.056936        -1.5493
  30   0.0000       0.080352         2.1865
  31   0.0000       0.100046         2.7224
  32   0.0000       0.109695         2.9850
  33   0.0000       0.119836         3.2609

MULLIKEN ATOMIC CHARGES
-----------------------
   0 C :   -0.467890
   1 C :   -0.252812
   2 C :   -0.232041
   3 C :   -0.306454
   4 I :   -0.135995
   5 H :    0.151886
   6 H :    0.160393
   7 H :    0.143794
   8 H :    0.138788
   9 H :    0.141791
  10 H :    0.163176
  11 H :    0.146721
  12 H :    0.172617
  13 H :    0.176026
Sum of atomic charges:    0.0000000

LOEWDIN ATOMIC CHARGES
----------------------
   0 C :   -0.429607
   1 C :   -0.315904
   2 C :   -0.324725
   3 C :   -0.409058
   4 I :    0.056320
   5 H :    0.154093
   6 H :    0.154815
   7 H :    0.149805
   8 H :    0.150864
   9 H :    0.154028
  10 H :    0.164505
  11 H :    0.163213
  12 H :    0.165904
  13 H :    0.165748

  Mayer bond orders larger than 0.100000
B(  0-C ,  1-C ) :   0.9022 B(  0-C ,  5-H ) :   0.9758 B(  0-C ,  6-H ) :   0.9716
B(  0-C ,  7-H ) :   0.9677 B(  1-C ,  2-C ) :   0.9201 B(  1-C ,  8-H ) :   0.9838
B(  1-C ,  9-H ) :   0.9708 B(  2-C ,  3-C ) :   0.8725 B(  2-C , 10-H ) :   0.9724
B(  2-C , 11-H ) :   0.9500 B(  3-C ,  4-I ) :   0.9759 B(  3-C , 12-H ) :   0.9616
B(  3-C , 13-H ) :   0.9489

Dispersion correction           -0.003738187
FINAL SINGLE POINT ENERGY      -455.525039707149

DIPOLE MOMENT
-------------

Method             : SCF
Type of density    : Electron Density
Multiplicity       :   1
Irrep              :   0
Energy             :  -455.5276264150487577 Eh
Relativity type    :
Basis              : AO
                                X                 Y                 Z
Electronic contribution:     81.911827257     -22.046032655      -6.462184010
Nuclear contribution   :    -82.581783660      22.589154646       6.599052220
                        -----------------------------------------
Total Dipole Moment    :     -0.669956403       0.543121991       0.136868210
                        -----------------------------------------
Magnitude (a.u.)       :      0.873244517
Magnitude (Debye)      :      2.219611167

Rotational constants in cm-1:             0.186862             0.041463             0.035750
Rotational constants in MHz :          5601.978831          1243.038254          1071.753370

                             ****ORCA TERMINATED NORMALLY****
TOTAL RUN TIME: 0 days 0 hours 0 minutes 16 seconds 509 msec
