                         Program Version 6.0.0  -   RELEASE  -
|  1> ! r2scan-3c def2/J RI DEFGRID2 scfconv6 printgap
|  2> %output
|  3>     printlevel normal
|  4> end
|  5> %cpcm
|  6>     smd true
|  7>     smdsolvent "water"
|  8> end
|  9> * xyz 0 1
| 10> C -2.6665097265 -0.965909006 0.1534016643
| 11> C -2.9127586898 0.5357051634 0.2370686001
| 12> C -1.7665405139 1.3915717408 -0.3059261953
| 13> C -0.487898614 1.3315725727 0.5123998514
| 14> I 0.8924040912 -0.2529078823 -0.0696085987
| 15> H -2.3854853119 -1.2534889343 -0.8574902952
| 16> H -1.8777107059 -1.2783104453 0.8323861182
| 17> H -3.5705168007 -1.506412602 0.4233290915
| 18> H -3.1062100589 0.8143701619 1.2757721956
| 19> H -3.8078686092 0.7773270919 -0.3398444246
| 20> H -1.5681819451 1.1228511393 -1.3452157378
| 21> H -2.0956713091 2.4346882032 -0.2982497879
| 22> H -0.6942580551 1.1680396802 1.5666735926
| 23> H 0.0953830913 2.2402874692 0.3934373565
| 24> *
| 25>
| 26>                          ****END OF INPUT****

CARTESIAN COORDINATES (ANGSTROEM)
---------------------------------
  C     -2.666510   -0.965909    0.153402
  C     -2.912759    0.535705    0.237069
  C     -1.766541    1.391572   -0.305926
  C     -0.487899    1.331573    0.512400
  I      0.892404   -0.252908   -0.069609
  H     -2.385485   -1.253489   -0.857490
  H     -1.877711   -1.278310    0.832386
  H     -3.570517   -1.506413    0.423329
  H     -3.106210    0.814370    1.275772
  H     -3.807869    0.777327   -0.339844
  H     -1.568182    1.122851   -1.345216
  H     -2.095671    2.434688   -0.298250
  H     -0.694258    1.168040    1.566674
  H      0.095383    2.240287    0.393437

 Total Charge           Charge          ....    0
 Multiplicity           Mult            ....    1
 Number of Electrons    NEL             ....   58
 Basis Dimension        Dim             ....  157

ORBITAL ENERGIES
----------------

  NO   OCC          E(Eh)            E(eV)
   0   2.0000     -10.071309      -274.0542
   1   2.0000     -10.028724      -272.8955
   2   2.0000     -10.019605      -272.6473
   3   2.0000     -10.006903      -272.3017
   4   2.0000      -6.799866      -185.0338
   5   2.0000      -4.817401      -131.0881
   6   2.0000      -4.802910      -130.6938
   7   2.0000      -4.802531      -130.6835
   8   2.0000      -1.853006       -50.4228
   9   2.0000      -1.849287       -50.3217
  10   2.0000      -1.848974       -50.3131
  11   2.0000      -1.837332       -49.9963
  12   2.0000      -1.837297       -49.9954
  13   2.0000      -0.768104       -20.9012
  14   2.0000      -0.701781       -19.0964
  15   2.0000      -0.645349       -17.5609
  16   2.0000      -0.583919       -15.8892
  17   2.0000      -0.531614       -14.4660
  18   2.0000      -0.431474       -11.7410
  19   2.0000      -0.416070       -11.3218
  20   2.0000      -0.391455       -10.6520
  21   2.0000      -0.360764        -9.8169
  22   2.0000      -0.348463        -9.4822
  23   2.0000      -0.323393        -8.8000
  24   2.0000      -0.297458        -8.0943
  25   2.0000      -0.293194        -7.9782
  26   2.0000      -0.285517        -7.7693
  27   2.0000      -0.231497        -6.2994
  28   2.0000      -0.226679        -6.1682
  29   0.0000      -0.046932        -1.2771
  30   0.0000       0.096331         2.6213
  31   0.0000       0.112806         3.0696
  32   0.0000       0.119523         3.2524
  33   0.0000       0.131291         3.5726

MULLIKEN ATOMIC CHARGES
-----------------------
   0 C :   -0.514697
   1 C :   -0.253766
   2 C :   -0.246062
   3 C :   -0.283667
   4 I :   -0.206650
   5 H :    0.158387
   6 H :    0.162990
   7 H :    0.153640
   8 H :    0.151207
   9 H :    0.150977
  10 H :    0.167782
  11 H :    0.166630
  12 H :    0.195059
  13 H :    0.198171
Sum of atomic charges:   -0.0000000

LOEWDIN ATOMIC CHARGES
----------------------
   0 C :   -0.439627
   1 C :   -0.316093
   2 C :   -0.322687
   3 C :   -0.394352
   4 I :    0.016316
   5 H :    0.153341
   6 H :    0.153655
   7 H :    0.151858
   8 H :    0.155351
   9 H :    0.156376
  10 H :    0.165359
  11 H :    0.171364
  12 H :    0.174862
  13 H :    0.174274

  Mayer bond orders larger than 0.100000
B(  0-C ,  1-C ) :   0.8859 B(  0-C ,  5-H ) :   0.9763 B(  0-C ,  6-H ) :   0.9720
B(  0-C ,  7-H ) :   0.9657 B(  1-C ,  2-C ) :   0.9108 B(  1-C ,  8-H ) :   0.9819
B(  1-C ,  9-H ) :   0.9720 B(  2-C ,  3-C ) :   0.8722 B(  2-C , 10-H ) :   0.9745
B(  2-C , 11-H ) :   0.9469 B(  3-C ,  4-I ) :   0.9174 B(  3-C , 12-H ) :   0.9553
B(  3-C , 13-H ) :   0.9431

Dispersion correction           -0.003738187
FINAL SINGLE POINT ENERGY      -455.527197964556

DIPOLE MOMENT
-------------

Method             : SCF
Type of density    : Electron Density
Multiplicity       :   1
Irrep              :   0
Energy             :  -455.5297846724558894 Eh
Relativity type    :
Basis              : AO
                                X                 Y                 Z
Electronic contribution:     81.719190794     -21.780168047      -6.372404273
Nuclear contribution   :    -82.581783660      22.589154646       6.599052220
                        -----------------------------------------
Total Dipole Moment    :     -0.862592866       0.808986599       0.226647947
                        -----------------------------------------
Magnitude (a.u.)       :      1.204115884
Magnitude (Debye)      :      3.060619346

Rotational constants in cm-1:             0.186862             0.041463             0.035750
Rotational constants in MHz :          5601.978831          1243.038254          1071.753370

                             ****ORCA TERMINATED NORMALLY****
TOTAL RUN TIME: 0 days 0 hours 0 minutes 16 seconds 972 msec
