                         Program Version 6.0.0  -   RELEASE  -
|  1> ! r2scan-3c def2/J RI DEFGRID2 scfconv6 printgap
|  2> %output
|  3>     printlevel normal
|  4> end
|  5> * xyz 0 1
|  6> C 1.7520573935 0.6699888373 0.4136684011
|  7> C 1.3696847127 -0.3829466201 -0.2842801279
|  8> C -0.0514606537 -0.8210373439 -0.4937832742
|  9> C -1.03174106 -0.1312757993 0.4003023256
| 10> C -2.0173475928 0.6378370061 -0.0221989376
| 11> H 2.7906768484 0.9339281481 0.5175197288
| 12> H 1.0430303065 1.3136238185 0.9071966114
| 13> H 2.1078477013 -1.0028491394 -0.777237741
| 14> H -0.1044165001 -1.8999223824 -0.3146742735
| 15> H -0.3169010879 -0.650647731 -1.5413875566
| 16> H -0.8877958727 -0.303615372 1.4591911656
| 17> H -2.7062262588 1.110324388 0.6571716658
| 18> H -2.1787509325 0.8260639612 -1.0711302904
| 19> *
| 20>
| 21>                          ****END OF INPUT****

CARTESIAN COORDINATES (ANGSTROEM)
---------------------------------
  C      1.752057    0.669989    0.413668
  C      1.369685   -0.382947   -0.284280
  C     -0.051461   -0.821037   -0.493783
  C     -1.031741   -0.131276    0.400302
  C     -2.017348    0.637837   -0.022199
  H      2.790677    0.933928    0.517520
  H      1.043030    1.313624    0.907197
  H      2.107848   -1.002849   -0.777238
  H     -0.104417   -1.899922   -0.314674
  H     -0.316901   -0.650648   -1.541388
  H     -0.887796   -0.303615    1.459191
  H     -2.706226    1.110324    0.657172
  H     -2.178751    0.826064   -1.071130

 Total Charge           Charge          ....    0
 Multiplicity           Mult            ....    1
 Number of Electrons    NEL             ....   38
 Basis Dimension        Dim             ....  135

ORBITAL ENERGIES
----------------

  NO   OCC          E(Eh)            E(eV)
   0   2.0000     -10.040499      -273.2159
   1   2.0000     -10.037306      -273.1290
   2   2.0000     -10.037048      -273.1220
   3   2.0000     -10.021650      -272.7030
   4   2.0000     -10.018386      -272.6141
   5   2.0000      -0.784124       -21.3371
   6   2.0000      -0.723862       -19.6973
   7   2.0000      -0.652229       -17.7481
   8   2.0000      -0.550360       -14.9761
   9   2.0000      -0.505389       -13.7523
  10   2.0000      -0.441558       -12.0154
  11   2.0000      -0.440222       -11.9790
  12   2.0000      -0.404302       -11.0016
  13   2.0000      -0.372135       -10.1263
  14   2.0000      -0.356963        -9.7135
  15   2.0000      -0.326926        -8.8961
  16   2.0000      -0.303914        -8.2699
  17   2.0000      -0.245788        -6.6882
  18   2.0000      -0.236713        -6.4413
  19   0.0000      -0.017069        -0.4645
  20   0.0000      -0.010508        -0.2859
  21   0.0000       0.097093         2.6420
  22   0.0000       0.125540         3.4161
  23   0.0000       0.139267         3.7896

MULLIKEN ATOMIC CHARGES
-----------------------
   0 C :   -0.312966
   1 C :   -0.151172
   2 C :   -0.248167
   3 C :   -0.122505
   4 C :   -0.352656
   5 H :    0.139348
   6 H :    0.147089
   7 H :    0.150257
   8 H :    0.150648
   9 H :    0.153193
  10 H :    0.163266
  11 H :    0.142671
  12 H :    0.140994
Sum of atomic charges:    0.0000000

LOEWDIN ATOMIC CHARGES
----------------------
   0 C :   -0.311973
   1 C :   -0.190741
   2 C :   -0.289046
   3 C :   -0.193449
   4 C :   -0.310740
   5 H :    0.157006
   6 H :    0.161556
   7 H :    0.159449
   8 H :    0.170558
   9 H :    0.170475
  10 H :    0.164536
  11 H :    0.157216
  12 H :    0.155154

  Mayer bond orders larger than 0.100000
B(  0-C ,  1-C ) :   1.9554 B(  0-C ,  5-H ) :   0.9610 B(  0-C ,  6-H ) :   0.9638
B(  1-C ,  2-C ) :   0.9226 B(  1-C ,  7-H ) :   0.9368 B(  2-C ,  3-C ) :   0.9374
B(  2-C ,  8-H ) :   0.9645 B(  2-C ,  9-H ) :   0.9818 B(  3-C ,  4-C ) :   1.9184
B(  3-C , 10-H ) :   0.9249 B(  4-C , 11-H ) :   0.9619 B(  4-C , 12-H ) :   0.9865

Dispersion correction           -0.002944633
FINAL SINGLE POINT ENERGY      -195.227643426709

DIPOLE MOMENT
-------------

Method             : SCF
Type of density    : Electron Density
Multiplicity       :   1
Irrep              :   0
Energy             :  -195.2285158749988057 Eh
Relativity type    :
Basis              : AO
                                X                 Y                 Z
Electronic contribution:      0.239434015      -0.452144144       0.079416357
Nuclear contribution   :     -0.236922096       0.306693874      -0.153251097
                        -----------------------------------------
Total Dipole Moment    :      0.002511919      -0.145450270      -0.073834741
                        -----------------------------------------
Magnitude (a.u.)       :      0.163136935
Magnitude (Debye)      :      0.414661136

Rotational constants in cm-1:             0.371532             0.107500             0.091223
Rotational constants in MHz :         11138.254025          3222.782189          2734.806827

                             ****ORCA TERMINATED NORMALLY****
TOTAL RUN TIME: 0 days 0 hours 0 minutes 11 seconds 828 msec
