                         Program Version 6.0.0  -   RELEASE  -
|  1> ! r2scan-3c def2/J RI DEFGRID2 scfconv6 printgap
|  2> %output
|  3>     printlevel normal
|  4> end
|  5> %cpcm
|  6>     smd true
|  7>     smdsolvent "water"
|  8> end
|  9> * xyz 0 1
| 10> C 1.7520573935 0.6699888373 0.4136684011
| 11> C 1.3696847127 -0.3829466201 -0.2842801279
| 12> C -0.0514606537 -0.8210373439 -0.4937832742
| 13> C -1.03174106 -0.1312757993 0.4003023256
| 14> C -2.0173475928 0.6378370061 -0.0221989376
| 15> H 2.7906768484 0.9339281481 0.5175197288
| 16> H 1.0430303065 1.3136238185 0.9071966114
| 17> H 2.1078477013 -1.0028491394 -0.777237741
| 18> H -0.1044165001 -1.8999223824 -0.3146742735
| 19> H -0.3169010879 -0.650647731 -1.5413875566
| 20> H -0.8877958727 -0.303615372 1.4591911656
| 21> H -2.7062262588 1.110324388 0.6571716658
| 22> H -2.1787509325 0.8260639612 -1.0711302904
| 23> *
| 24>
| 25>                          ****END OF INPUT****

CARTESIAN COORDINATES (ANGSTROEM)
---------------------------------
  C      1.752057    0.669989    0.413668
  C      1.369685   -0.382947   -0.284280
  C     -0.051461   -0.821037   -0.493783
  C     -1.031741   -0.131276    0.400302
  C     -2.017348    0.637837   -0.022199
  H      2.790677    0.933928    0.517520
  H      1.043030    1.313624    0.907197
  H      2.107848   -1.002849   -0.777238
  H     -0.104417   -1.899922   -0.314674
  H     -0.316901   -0.650648   -1.541388
  H     -0.887796   -0.303615    1.459191
  H     -2.706226    1.110324    0.657172
  H     -2.178751    0.826064   -1.071130

 Total Charge           Charge          ....    0
 Multiplicity           Mult            ....    1
 Number of Electrons    NEL             ....   38
 Basis Dimension        Dim             ....  135

ORBITAL ENERGIES
----------------

  NO   OCC          E(Eh)            E(eV)
   0   2.0000     -10.035371      -273.0763
   1   2.0000     -10.033195      -273.0171
   2   2.0000     -10.032210      -272.9903
   3   2.0000     -10.016503      -272.5629
   4   2.0000     -10.015063      -272.5237
   5   2.0000      -0.780070       -21.2268
   6   2.0000      -0.721459       -19.6319
   7   2.0000      -0.647493       -17.6192
   8   2.0000      -0.545331       -14.8392
   9   2.0000      -0.499865       -13.6020
  10   2.0000      -0.436761       -11.8849
  11   2.0000      -0.434933       -11.8351
  12   2.0000      -0.398909       -10.8549
  13   2.0000      -0.366910        -9.9841
  14   2.0000      -0.350715        -9.5434
  15   2.0000      -0.320986        -8.7345
  16   2.0000      -0.297747        -8.1021
  17   2.0000      -0.245741        -6.6870
  18   2.0000      -0.236616        -6.4386
  19   0.0000      -0.015770        -0.4291
  20   0.0000      -0.009549        -0.2598
  21   0.0000       0.102567         2.7910
  22   0.0000       0.134189         3.6515
  23   0.0000       0.148024         4.0279

MULLIKEN ATOMIC CHARGES
-----------------------
   0 C :   -0.388630
   1 C :   -0.171709
   2 C :   -0.251985
   3 C :   -0.146875
   4 C :   -0.422589
   5 H :    0.167128
   6 H :    0.164238
   7 H :    0.179153
   8 H :    0.173247
   9 H :    0.176647
  10 H :    0.185483
  11 H :    0.167795
  12 H :    0.168097
Sum of atomic charges:   -0.0000000

LOEWDIN ATOMIC CHARGES
----------------------
   0 C :   -0.338845
   1 C :   -0.191182
   2 C :   -0.292258
   3 C :   -0.198002
   4 C :   -0.332300
   5 H :    0.163840
   6 H :    0.164476
   7 H :    0.168821
   8 H :    0.180043
   9 H :    0.178596
  10 H :    0.170862
  11 H :    0.163452
  12 H :    0.162498

  Mayer bond orders larger than 0.100000
B(  0-C ,  1-C ) :   1.9138 B(  0-C ,  5-H ) :   0.9600 B(  0-C ,  6-H ) :   0.9647
B(  1-C ,  2-C ) :   0.9137 B(  1-C ,  7-H ) :   0.9374 B(  2-C ,  3-C ) :   0.9159
B(  2-C ,  8-H ) :   0.9561 B(  2-C ,  9-H ) :   0.9772 B(  3-C ,  4-C ) :   1.8952
B(  3-C , 10-H ) :   0.9215 B(  4-C , 11-H ) :   0.9615 B(  4-C , 12-H ) :   0.9813

Dispersion correction           -0.002944633
FINAL SINGLE POINT ENERGY      -195.226804622226

DIPOLE MOMENT
-------------

Method             : SCF
Type of density    : Electron Density
Multiplicity       :   1
Irrep              :   0
Energy             :  -195.2276770705163926 Eh
Relativity type    :
Basis              : AO
                                X                 Y                 Z
Electronic contribution:      0.251656411      -0.564503385       0.028625402
Nuclear contribution   :     -0.236922096       0.306693874      -0.153251097
                        -----------------------------------------
Total Dipole Moment    :      0.014734315      -0.257809512      -0.124625695
                        -----------------------------------------
Magnitude (a.u.)       :      0.286730550
Magnitude (Debye)      :      0.728811138

Rotational constants in cm-1:             0.371532             0.107500             0.091223
Rotational constants in MHz :         11138.254025          3222.782189          2734.806827

                             ****ORCA TERMINATED NORMALLY****
TOTAL RUN TIME: 0 days 0 hours 0 minutes 13 seconds 621 msec
