                         Program Version 6.0.0  -   RELEASE  -
|  1> ! r2scan-3c def2/J RI DEFGRID2 scfconv6 printgap
|  2> %output
|  3>     printlevel normal
|  4> end
|  5> * xyz 0 1
|  6> C -3.4341873813 -0.9663527911 0.3058051708
|  7> C -2.0865462996 -0.6243520702 -0.3164644219
|  8> C -1.2951369298 0.3455504152 0.5739132533
|  9> C 0.0156287484 0.6704231042 -0.0897735257
| 10> O 0.20894729 1.6281026864 -0.8117706245
| 11> O 0.9356492946 -0.2427121556 0.1814636766
| 12> C 2.2438633318 -0.1103635306 -0.4009221423
| 13> C 3.2661465841 -0.6696714165 0.5715867651
| 14> H -3.9787398489 -1.6533748032 -0.3360291899
| 15> H -3.2967203024 -1.4346755562 1.2768337596
| 16> H -4.0324079784 -0.0683445531 0.4364664134
| 17> H -2.2362137587 -0.165240394 -1.296003129
| 18> H -1.5016088374 -1.5354318423 -0.4551084184
| 19> H -1.1007526218 -0.1203882138 1.5390249202
| 20> H -1.8582465339 1.2689316897 0.7059700656
| 21> H 2.245144251 -0.6689379066 -1.3418488944
| 22> H 2.4210187057 0.9476405937 -0.6190309391
| 23> H 3.2534424053 -0.1029482108 1.4983026789
| 24> H 3.0368228484 -1.7078835858 0.792403011
| 25> H 4.2544500959 -0.6064742757 0.1283244098
| 26> *
| 27>
| 28>                          ****END OF INPUT****

CARTESIAN COORDINATES (ANGSTROEM)
---------------------------------
  C     -3.434187   -0.966353    0.305805
  C     -2.086546   -0.624352   -0.316464
  C     -1.295137    0.345550    0.573913
  C      0.015629    0.670423   -0.089774
  O      0.208947    1.628103   -0.811771
  O      0.935649   -0.242712    0.181464
  C      2.243863   -0.110364   -0.400922
  C      3.266147   -0.669671    0.571587
  H     -3.978740   -1.653375   -0.336029
  H     -3.296720   -1.434676    1.276834
  H     -4.032408   -0.068345    0.436466
  H     -2.236214   -0.165240   -1.296003
  H     -1.501609   -1.535432   -0.455108
  H     -1.100753   -0.120388    1.539025
  H     -1.858247    1.268932    0.705970
  H      2.245144   -0.668938   -1.341849
  H      2.421019    0.947641   -0.619031
  H      3.253442   -0.102948    1.498303
  H      3.036823   -1.707884    0.792403
  H      4.254450   -0.606474    0.128324

 Total Charge           Charge          ....    0
 Multiplicity           Mult            ....    1
 Number of Electrons    NEL             ....   64
 Basis Dimension        Dim             ....  222

ORBITAL ENERGIES
----------------

  NO   OCC          E(Eh)            E(eV)
   0   2.0000     -18.995616      -516.8970
   1   2.0000     -18.924616      -514.9650
   2   2.0000     -10.149589      -276.1844
   3   2.0000     -10.090174      -274.5676
   4   2.0000     -10.039925      -273.2003
   5   2.0000     -10.038650      -273.1656
   6   2.0000     -10.031770      -272.9783
   7   2.0000     -10.023549      -272.7546
   8   2.0000      -1.070183       -29.1212
   9   2.0000      -0.972374       -26.4596
  10   2.0000      -0.775565       -21.1042
  11   2.0000      -0.742650       -20.2085
  12   2.0000      -0.681004       -18.5311
  13   2.0000      -0.615539       -16.7497
  14   2.0000      -0.567760       -15.4495
  15   2.0000      -0.532545       -14.4913
  16   2.0000      -0.470966       -12.8156
  17   2.0000      -0.455740       -12.4013
  18   2.0000      -0.443169       -12.0592
  19   2.0000      -0.422472       -11.4960
  20   2.0000      -0.406022       -11.0484
  21   2.0000      -0.388906       -10.5827
  22   2.0000      -0.376631       -10.2487
  23   2.0000      -0.361311        -9.8318
  24   2.0000      -0.354487        -9.6461
  25   2.0000      -0.347697        -9.4613
  26   2.0000      -0.326112        -8.8740
  27   2.0000      -0.310800        -8.4573
  28   2.0000      -0.309969        -8.4347
  29   2.0000      -0.307455        -8.3663
  30   2.0000      -0.268901        -7.3172
  31   2.0000      -0.230906        -6.2833
  32   0.0000      -0.012617        -0.3433
  33   0.0000       0.076136         2.0718
  34   0.0000       0.094739         2.5780
  35   0.0000       0.105168         2.8618
  36   0.0000       0.120992         3.2923

MULLIKEN ATOMIC CHARGES
-----------------------
   0 C :   -0.472999
   1 C :   -0.232741
   2 C :   -0.342307
   3 C :    0.421731
   4 O :   -0.433010
   5 O :   -0.177545
   6 C :   -0.155236
   7 C :   -0.443082
   8 H :    0.150674
   9 H :    0.144443
  10 H :    0.146468
  11 H :    0.153852
  12 H :    0.148020
  13 H :    0.154593
  14 H :    0.162241
  15 H :    0.143928
  16 H :    0.179899
  17 H :    0.152521
  18 H :    0.151967
  19 H :    0.146583
Sum of atomic charges:    0.0000000

LOEWDIN ATOMIC CHARGES
----------------------
   0 C :   -0.419548
   1 C :   -0.287732
   2 C :   -0.229734
   3 C :    0.356393
   4 O :   -0.435026
   5 O :   -0.598866
   6 C :    0.032579
   7 C :   -0.387135
   8 H :    0.153067
   9 H :    0.150608
  10 H :    0.151538
  11 H :    0.160558
  12 H :    0.158404
  13 H :    0.175891
  14 H :    0.177007
  15 H :    0.174157
  16 H :    0.191681
  17 H :    0.158586
  18 H :    0.158367
  19 H :    0.159209

  Mayer bond orders larger than 0.100000
B(  0-C ,  1-C ) :   0.8959 B(  0-C ,  8-H ) :   0.9720 B(  0-C ,  9-H ) :   0.9850
B(  0-C , 10-H ) :   0.9834 B(  1-C ,  2-C ) :   0.9297 B(  1-C , 11-H ) :   0.9585
B(  1-C , 12-H ) :   0.9636 B(  2-C ,  3-C ) :   0.9667 B(  2-C , 13-H ) :   0.9768
B(  2-C , 14-H ) :   0.9768 B(  3-C ,  4-O ) :   1.8415 B(  3-C ,  5-O ) :   1.0477
B(  5-O ,  6-C ) :   0.7830 B(  6-C ,  7-C ) :   0.9486 B(  6-C , 15-H ) :   0.9452
B(  6-C , 16-H ) :   0.9667 B(  7-C , 17-H ) :   0.9745 B(  7-C , 18-H ) :   0.9692
B(  7-C , 19-H ) :   0.9676

Dispersion correction           -0.004862216
FINAL SINGLE POINT ENERGY      -386.234651078010

DIPOLE MOMENT
-------------

Method             : SCF
Type of density    : Electron Density
Multiplicity       :   1
Irrep              :   0
Energy             :  -386.2414518709623508 Eh
Relativity type    :
Basis              : AO
                                X                 Y                 Z
Electronic contribution:      2.766625256       4.675071308      -1.794082992
Nuclear contribution   :     -2.604088713      -5.465037088       2.175929793
                        -----------------------------------------
Total Dipole Moment    :      0.162536543      -0.789965780       0.381846800
                        -----------------------------------------
Magnitude (a.u.)       :      0.892340205
Magnitude (Debye)      :      2.268148547

Rotational constants in cm-1:             0.142195             0.030798             0.027252
Rotational constants in MHz :          4262.906617           923.308130           816.984904

                             ****ORCA TERMINATED NORMALLY****
TOTAL RUN TIME: 0 days 0 hours 0 minutes 29 seconds 321 msec
