                         Program Version 6.0.0  -   RELEASE  -
|  1> ! r2scan-3c def2/J RI DEFGRID2 scfconv6 printgap
|  2> %output
|  3>     printlevel normal
|  4> end
|  5> %cpcm
|  6>     smd true
|  7>     smdsolvent "water"
|  8> end
|  9> * xyz 0 1
| 10> C -3.4341873813 -0.9663527911 0.3058051708
| 11> C -2.0865462996 -0.6243520702 -0.3164644219
| 12> C -1.2951369298 0.3455504152 0.5739132533
| 13> C 0.0156287484 0.6704231042 -0.0897735257
| 14> O 0.20894729 1.6281026864 -0.8117706245
| 15> O 0.9356492946 -0.2427121556 0.1814636766
| 16> C 2.2438633318 -0.1103635306 -0.4009221423
| 17> C 3.2661465841 -0.6696714165 0.5715867651
| 18> H -3.9787398489 -1.6533748032 -0.3360291899
| 19> H -3.2967203024 -1.4346755562 1.2768337596
| 20> H -4.0324079784 -0.0683445531 0.4364664134
| 21> H -2.2362137587 -0.165240394 -1.296003129
| 22> H -1.5016088374 -1.5354318423 -0.4551084184
| 23> H -1.1007526218 -0.1203882138 1.5390249202
| 24> H -1.8582465339 1.2689316897 0.7059700656
| 25> H 2.245144251 -0.6689379066 -1.3418488944
| 26> H 2.4210187057 0.9476405937 -0.6190309391
| 27> H 3.2534424053 -0.1029482108 1.4983026789
| 28> H 3.0368228484 -1.7078835858 0.792403011
| 29> H 4.2544500959 -0.6064742757 0.1283244098
| 30> *
| 31>
| 32>                          ****END OF INPUT****

CARTESIAN COORDINATES (ANGSTROEM)
---------------------------------
  C     -3.434187   -0.966353    0.305805
  C     -2.086546   -0.624352   -0.316464
  C     -1.295137    0.345550    0.573913
  C      0.015629    0.670423   -0.089774
  O      0.208947    1.628103   -0.811771
  O      0.935649   -0.242712    0.181464
  C      2.243863   -0.110364   -0.400922
  C      3.266147   -0.669671    0.571587
  H     -3.978740   -1.653375   -0.336029
  H     -3.296720   -1.434676    1.276834
  H     -4.032408   -0.068345    0.436466
  H     -2.236214   -0.165240   -1.296003
  H     -1.501609   -1.535432   -0.455108
  H     -1.100753   -0.120388    1.539025
  H     -1.858247    1.268932    0.705970
  H      2.245144   -0.668938   -1.341849
  H      2.421019    0.947641   -0.619031
  H      3.253442   -0.102948    1.498303
  H      3.036823   -1.707884    0.792403
  H      4.254450   -0.606474    0.128324

 Total Charge           Charge          ....    0
 Multiplicity           Mult            ....    1
 Number of Electrons    NEL             ....   64
 Basis Dimension        Dim             ....  222

ORBITAL ENERGIES
----------------

  NO   OCC          E(Eh)            E(eV)
   0   2.0000     -19.002069      -517.0726
   1   2.0000     -18.942162      -515.4424
   2   2.0000     -10.161526      -276.5092
   3   2.0000     -10.082901      -274.3697
   4   2.0000     -10.034710      -273.0583
   5   2.0000     -10.030383      -272.9406
   6   2.0000     -10.018566      -272.6191
   7   2.0000     -10.011992      -272.4402
   8   2.0000      -1.078429       -29.3455
   9   2.0000      -0.987689       -26.8764
  10   2.0000      -0.770312       -20.9613
  11   2.0000      -0.734597       -19.9894
  12   2.0000      -0.673970       -18.3397
  13   2.0000      -0.608876       -16.5684
  14   2.0000      -0.559749       -15.2315
  15   2.0000      -0.531270       -14.4566
  16   2.0000      -0.471778       -12.8377
  17   2.0000      -0.459774       -12.5111
  18   2.0000      -0.442386       -12.0379
  19   2.0000      -0.425342       -11.5741
  20   2.0000      -0.403727       -10.9860
  21   2.0000      -0.382138       -10.3985
  22   2.0000      -0.366373        -9.9695
  23   2.0000      -0.357729        -9.7343
  24   2.0000      -0.347555        -9.4575
  25   2.0000      -0.340970        -9.2783
  26   2.0000      -0.319881        -8.7044
  27   2.0000      -0.309312        -8.4168
  28   2.0000      -0.305144        -8.3034
  29   2.0000      -0.300511        -8.1773
  30   2.0000      -0.275657        -7.5010
  31   2.0000      -0.248091        -6.7509
  32   0.0000      -0.022021        -0.5992
  33   0.0000       0.078760         2.1432
  34   0.0000       0.103765         2.8236
  35   0.0000       0.115872         3.1530
  36   0.0000       0.129036         3.5113

MULLIKEN ATOMIC CHARGES
-----------------------
   0 C :   -0.516794
   1 C :   -0.220234
   2 C :   -0.366897
   3 C :    0.460267
   4 O :   -0.520094
   5 O :   -0.193467
   6 C :   -0.148211
   7 C :   -0.487824
   8 H :    0.162423
   9 H :    0.158875
  10 H :    0.159012
  11 H :    0.157535
  12 H :    0.157635
  13 H :    0.176736
  14 H :    0.175737
  15 H :    0.170833
  16 H :    0.176495
  17 H :    0.165300
  18 H :    0.164488
  19 H :    0.168185
Sum of atomic charges:    0.0000000

LOEWDIN ATOMIC CHARGES
----------------------
   0 C :   -0.424765
   1 C :   -0.285318
   2 C :   -0.227913
   3 C :    0.365233
   4 O :   -0.498140
   5 O :   -0.599367
   6 C :    0.036765
   7 C :   -0.390239
   8 H :    0.156408
   9 H :    0.154854
  10 H :    0.154845
  11 H :    0.161351
  12 H :    0.161702
  13 H :    0.185447
  14 H :    0.182089
  15 H :    0.184228
  16 H :    0.191315
  17 H :    0.161627
  18 H :    0.162003
  19 H :    0.167872

  Mayer bond orders larger than 0.100000
B(  0-C ,  1-C ) :   0.8881 B(  0-C ,  8-H ) :   0.9687 B(  0-C ,  9-H ) :   0.9820
B(  0-C , 10-H ) :   0.9811 B(  1-C ,  2-C ) :   0.9194 B(  1-C , 11-H ) :   0.9577
B(  1-C , 12-H ) :   0.9605 B(  2-C ,  3-C ) :   0.9634 B(  2-C , 13-H ) :   0.9659
B(  2-C , 14-H ) :   0.9753 B(  3-C ,  4-O ) :   1.7695 B(  3-C ,  5-O ) :   1.0768
B(  5-O ,  6-C ) :   0.7710 B(  6-C ,  7-C ) :   0.9451 B(  6-C , 15-H ) :   0.9365
B(  6-C , 16-H ) :   0.9619 B(  7-C , 17-H ) :   0.9726 B(  7-C , 18-H ) :   0.9663
B(  7-C , 19-H ) :   0.9613

Dispersion correction           -0.004862216
FINAL SINGLE POINT ENERGY      -386.239939902322

DIPOLE MOMENT
-------------

Method             : SCF
Type of density    : Electron Density
Multiplicity       :   1
Irrep              :   0
Energy             :  -386.2467406952741840 Eh
Relativity type    :
Basis              : AO
                                X                 Y                 Z
Electronic contribution:      2.813943877       4.370356815      -1.627676713
Nuclear contribution   :     -2.604088713      -5.465037088       2.175929793
                        -----------------------------------------
Total Dipole Moment    :      0.209855163      -1.094680273       0.548253080
                        -----------------------------------------
Magnitude (a.u.)       :      1.242153585
Magnitude (Debye)      :      3.157303499

Rotational constants in cm-1:             0.142195             0.030798             0.027252
Rotational constants in MHz :          4262.906617           923.308130           816.984904

                             ****ORCA TERMINATED NORMALLY****
TOTAL RUN TIME: 0 days 0 hours 0 minutes 35 seconds 97 msec
