                         Program Version 6.0.0  -   RELEASE  -
|  1> ! pbe def2-sv(p) def2/J RI DEFGRID1 loosescf d4 GCP(DFT/SV(P)) printgap
|  2> %output
|  3>     printlevel normal
|  4> end
|  5> * xyz 0 1
|  6> C -3.3666491619 -1.0549580422 0.2749466844
|  7> C -1.9978697315 -0.4616305974 0.5824178082
|  8> C -1.3265227681 0.0727623841 -0.6918896062
|  9> C 0.0019991256 0.6814314429 -0.3351216528
| 10> O 0.1889068181 1.8589749575 -0.1020853963
| 11> O 0.9575693042 -0.2328639425 -0.2614341857
| 12> C 2.2724755802 0.1971741381 0.1303193062
| 13> C 3.1270667131 -1.0349048223 0.3563340459
| 14> H -4.0215133272 -0.3003360706 -0.1529763363
| 15> H -3.2755684151 -1.875075862 -0.4323318095
| 16> H -3.8237075622 -1.4320721472 1.1856412413
| 17> H -1.3560985357 -1.2237334899 1.0278787383
| 18> H -2.1013057769 0.3559650854 1.2990544825
| 19> H -1.9521985266 0.8410029519 -1.1451605993
| 20> H -1.1670402966 -0.7463377825 -1.3918153592
| 21> H 2.6773186566 0.8297694567 -0.6663418699
| 22> H 2.1826383384 0.8058552521 1.0360869228
| 23> H 2.703618579 -1.6429871005 1.1501578082
| 24> H 3.1714512344 -1.6269063131 -0.5528571394
| 25> H 4.1300386752 -0.7295563548 0.6354500107
| 26> *
| 27>
| 28>                          ****END OF INPUT****

CARTESIAN COORDINATES (ANGSTROEM)
---------------------------------
  C     -3.366649   -1.054958    0.274947
  C     -1.997870   -0.461631    0.582418
  C     -1.326523    0.072762   -0.691890
  C      0.001999    0.681431   -0.335122
  O      0.188907    1.858975   -0.102085
  O      0.957569   -0.232864   -0.261434
  C      2.272476    0.197174    0.130319
  C      3.127067   -1.034905    0.356334
  H     -4.021513   -0.300336   -0.152976
  H     -3.275568   -1.875076   -0.432332
  H     -3.823708   -1.432072    1.185641
  H     -1.356099   -1.223733    1.027879
  H     -2.101306    0.355965    1.299054
  H     -1.952199    0.841003   -1.145161
  H     -1.167040   -0.746338   -1.391815
  H      2.677319    0.829769   -0.666342
  H      2.182638    0.805855    1.036087
  H      2.703619   -1.642987    1.150158
  H      3.171451   -1.626906   -0.552857
  H      4.130039   -0.729556    0.635450

 Total Charge           Charge          ....    0
 Multiplicity           Mult            ....    1
 Number of Electrons    NEL             ....   64
 Basis Dimension        Dim             ....  136

ORBITAL ENERGIES
----------------

  NO   OCC          E(Eh)            E(eV)
   0   2.0000     -18.795100      -511.4407
   1   2.0000     -18.729166      -509.6465
   2   2.0000      -9.999201      -272.0921
   3   2.0000      -9.945067      -270.6190
   4   2.0000      -9.895720      -269.2762
   5   2.0000      -9.893850      -269.2254
   6   2.0000      -9.888363      -269.0760
   7   2.0000      -9.880133      -268.8521
   8   2.0000      -1.002253       -27.2727
   9   2.0000      -0.904196       -24.6044
  10   2.0000      -0.729395       -19.8479
  11   2.0000      -0.699343       -19.0301
  12   2.0000      -0.639126       -17.3915
  13   2.0000      -0.578837       -15.7510
  14   2.0000      -0.534250       -14.5377
  15   2.0000      -0.506349       -13.7785
  16   2.0000      -0.444231       -12.0881
  17   2.0000      -0.440159       -11.9773
  18   2.0000      -0.425931       -11.5902
  19   2.0000      -0.396137       -10.7794
  20   2.0000      -0.389794       -10.6068
  21   2.0000      -0.364122        -9.9083
  22   2.0000      -0.360740        -9.8162
  23   2.0000      -0.351234        -9.5576
  24   2.0000      -0.344151        -9.3648
  25   2.0000      -0.322836        -8.7848
  26   2.0000      -0.316973        -8.6253
  27   2.0000      -0.300475        -8.1764
  28   2.0000      -0.298383        -8.1194
  29   2.0000      -0.290929        -7.9166
  30   2.0000      -0.253659        -6.9024
  31   2.0000      -0.211745        -5.7619
  32   0.0000      -0.015983        -0.4349
  33   0.0000       0.037485         1.0200
  34   0.0000       0.048348         1.3156
  35   0.0000       0.076072         2.0700
  36   0.0000       0.078946         2.1482

MULLIKEN ATOMIC CHARGES
-----------------------
   0 C :   -0.241827
   1 C :   -0.242771
   2 C :   -0.111770
   3 C :    0.110617
   4 O :   -0.217160
   5 O :   -0.245010
   6 C :   -0.028339
   7 C :   -0.271922
   8 H :    0.101558
   9 H :    0.098725
  10 H :    0.107093
  11 H :    0.097529
  12 H :    0.103195
  13 H :    0.097745
  14 H :    0.093905
  15 H :    0.103797
  16 H :    0.106136
  17 H :    0.113512
  18 H :    0.114144
  19 H :    0.110845
Sum of atomic charges:   -0.0000000

LOEWDIN ATOMIC CHARGES
----------------------
   0 C :   -0.339086
   1 C :   -0.225521
   2 C :   -0.241841
   3 C :    0.034477
   4 O :   -0.173904
   5 O :   -0.072116
   6 C :   -0.108551
   7 C :   -0.350977
   8 H :    0.119440
   9 H :    0.118260
  10 H :    0.121811
  11 H :    0.118258
  12 H :    0.121972
  13 H :    0.133453
  14 H :    0.129830
  15 H :    0.115947
  16 H :    0.116312
  17 H :    0.125797
  18 H :    0.126282
  19 H :    0.130157

  Mayer bond orders larger than 0.100000
B(  0-C ,  1-C ) :   1.1580 B(  0-C ,  8-H ) :   0.9532 B(  0-C ,  9-H ) :   0.9532
B(  0-C , 10-H ) :   0.9516 B(  1-C ,  2-C ) :   1.1288 B(  1-C , 11-H ) :   0.9265
B(  1-C , 12-H ) :   0.9269 B(  2-C ,  3-C ) :   1.0340 B(  2-C , 13-H ) :   0.9034
B(  2-C , 14-H ) :   0.8994 B(  3-C ,  4-O ) :   2.0500 B(  3-C ,  5-O ) :   1.2022
B(  5-O ,  6-C ) :   0.9122 B(  6-C ,  7-C ) :   1.1498 B(  6-C , 15-H ) :   0.9348
B(  6-C , 16-H ) :   0.9279 B(  7-C , 17-H ) :   0.9507 B(  7-C , 18-H ) :   0.9490
B(  7-C , 19-H ) :   0.9445

Dispersion correction           -0.014373851
FINAL SINGLE POINT ENERGY      -385.457450627358

DIPOLE MOMENT
-------------

Method             : SCF
Type of density    : Electron Density
Multiplicity       :   1
Irrep              :   0
Energy             :  -385.5323710500341008 Eh
Relativity type    :
Basis              : AO
                                X                 Y                 Z
Electronic contribution:      2.822763226       5.517780521      -1.824190881
Nuclear contribution   :     -2.640232218      -6.303270848       1.864175219
                        -----------------------------------------
Total Dipole Moment    :      0.182531008      -0.785490327       0.039984338
                        -----------------------------------------
Magnitude (a.u.)       :      0.807410286
Magnitude (Debye)      :      2.052273850

Rotational constants in cm-1:             0.128088             0.032191             0.027577
Rotational constants in MHz :          3839.993345           965.056426           826.727770

                             ****ORCA TERMINATED NORMALLY****
TOTAL RUN TIME: 0 days 0 hours 0 minutes 10 seconds 372 msec
