                         Program Version 6.0.0  -   RELEASE  -
|  1> ! r2scan-3c def2/J RI DEFGRID2 scfconv6 printgap
|  2> %output
|  3>     printlevel normal
|  4> end
|  5> * xyz 0 1
|  6> C -4.6798661546 -1.0208239702 -0.2825676898
|  7> C -3.9724501065 -2.2065429503 -0.1399869126
|  8> C -2.5991000362 -2.1789367475 0.0168894851
|  9> C -1.9080456292 -0.9690641958 0.032614612
| 10> C -2.6229013049 0.2251667084 -0.1124641473
| 11> C -4.0074424209 0.1864904676 -0.2683884417
| 12> C -1.9309990012 1.5197757093 -0.1033687603
| 13> O -2.5453310665 2.5777040042 -0.2249983846
| 14> C -0.466008778 1.4903172572 0.0543323817
| 15> C 0.1883799931 2.709780403 0.0331115111
| 16> C 1.5727410737 2.7676037427 0.1677965355
| 17> C 2.2969775916 1.6168427504 0.3262656585
| 18> C 1.6727892415 0.3463565511 0.3643511498
| 19> C 0.2521915497 0.2819126207 0.2167024916
| 20> C -0.4425663542 -0.9880701217 0.2103527362
| 21> O 0.1309809484 -2.0838944971 0.3404813077
| 22> N 2.3865739276 -0.7708171943 0.5643225439
| 23> C 3.8205377679 -0.8775998708 0.6009459307
| 24> C 4.435452788 -0.8759034026 -0.8146561226
| 25> O 5.8107355694 -1.1691459619 -0.799912121
| 26> H -5.751380724 -1.0395268527 -0.4043341987
| 27> H -4.4924826942 -3.1515430828 -0.1506436039
| 28> H -2.0311716412 -3.0903759792 0.1309734779
| 29> H -4.5316808921 1.1244183963 -0.3772410915
| 30> H -0.4004143926 3.6052227727 -0.0929355427
| 31> H 2.0722325295 3.7233435763 0.1450136555
| 32> H 3.3667123274 1.6798457257 0.4274779405
| 33> H 1.8512789718 -1.6354263458 0.5118791306
| 34> H 4.0735740669 -1.8236792423 1.0823437094
| 35> H 4.2475602963 -0.0668826372 1.1967148402
| 36> H 4.2435818457 0.0856040581 -1.3081084606
| 37> H 3.9710237517 -1.6649630734 -1.4109108836
| 38> H 6.2870662956 -0.4728718258 -0.3260066435
| 39> *
| 40>
| 41>                          ****END OF INPUT****

CARTESIAN COORDINATES (ANGSTROEM)
---------------------------------
  C     -4.679866   -1.020824   -0.282568
  C     -3.972450   -2.206543   -0.139987
  C     -2.599100   -2.178937    0.016889
  C     -1.908046   -0.969064    0.032615
  C     -2.622901    0.225167   -0.112464
  C     -4.007442    0.186490   -0.268388
  C     -1.930999    1.519776   -0.103369
  O     -2.545331    2.577704   -0.224998
  C     -0.466009    1.490317    0.054332
  C      0.188380    2.709780    0.033112
  C      1.572741    2.767604    0.167797
  C      2.296978    1.616843    0.326266
  C      1.672789    0.346357    0.364351
  C      0.252192    0.281913    0.216702
  C     -0.442566   -0.988070    0.210353
  O      0.130981   -2.083894    0.340481
  N      2.386574   -0.770817    0.564323
  C      3.820538   -0.877600    0.600946
  C      4.435453   -0.875903   -0.814656
  O      5.810736   -1.169146   -0.799912
  H     -5.751381   -1.039527   -0.404334
  H     -4.492483   -3.151543   -0.150644
  H     -2.031172   -3.090376    0.130973
  H     -4.531681    1.124418   -0.377241
  H     -0.400414    3.605223   -0.092936
  H      2.072233    3.723344    0.145014
  H      3.366712    1.679846    0.427478
  H      1.851279   -1.635426    0.511879
  H      4.073574   -1.823679    1.082344
  H      4.247560   -0.066883    1.196715
  H      4.243582    0.085604   -1.308108
  H      3.971024   -1.664963   -1.410911
  H      6.287066   -0.472872   -0.326007

 Total Charge           Charge          ....    0
 Multiplicity           Mult            ....    1
 Number of Electrons    NEL             ....  140
 Basis Dimension        Dim             ....  465

ORBITAL ENERGIES
----------------

  NO   OCC          E(Eh)            E(eV)
   0   2.0000     -18.967228      -516.1245
   1   2.0000     -18.943672      -515.4835
   2   2.0000     -18.938803      -515.3510
   3   2.0000     -14.192672      -386.2022
   4   2.0000     -10.125961      -275.5414
   5   2.0000     -10.122976      -275.4602
   6   2.0000     -10.106455      -275.0106
   7   2.0000     -10.092813      -274.6394
   8   2.0000     -10.084637      -274.4169
   9   2.0000     -10.060499      -273.7601
  10   2.0000     -10.060190      -273.7517
  11   2.0000     -10.058988      -273.7190
  12   2.0000     -10.057888      -273.6890
  13   2.0000     -10.057652      -273.6826
  14   2.0000     -10.054701      -273.6023
  15   2.0000     -10.053994      -273.5831
  16   2.0000     -10.053756      -273.5766
  17   2.0000     -10.051170      -273.5062
  18   2.0000     -10.050421      -273.4859
  19   2.0000     -10.042559      -273.2719
  20   2.0000      -1.008276       -27.4366
  21   2.0000      -1.004694       -27.3391
  22   2.0000      -1.003083       -27.2953
  23   2.0000      -0.932492       -25.3744
  24   2.0000      -0.851867       -23.1805
  25   2.0000      -0.836116       -22.7519
  26   2.0000      -0.776060       -21.1177
  27   2.0000      -0.749947       -20.4071
  28   2.0000      -0.738031       -20.0828
  29   2.0000      -0.733640       -19.9634
  30   2.0000      -0.699591       -19.0368
  31   2.0000      -0.653275       -17.7765
  32   2.0000      -0.635206       -17.2848
  33   2.0000      -0.617628       -16.8065
  34   2.0000      -0.607950       -16.5432
  35   2.0000      -0.572648       -15.5825
  36   2.0000      -0.554672       -15.0934
  37   2.0000      -0.524470       -14.2715
  38   2.0000      -0.519950       -14.1486
  39   2.0000      -0.500252       -13.6126
  40   2.0000      -0.488337       -13.2883
  41   2.0000      -0.469432       -12.7739
  42   2.0000      -0.462118       -12.5749
  43   2.0000      -0.451195       -12.2776
  44   2.0000      -0.444212       -12.0876
  45   2.0000      -0.432735       -11.7753
  46   2.0000      -0.429862       -11.6972
  47   2.0000      -0.418943       -11.4000
  48   2.0000      -0.408125       -11.1057
  49   2.0000      -0.405055       -11.0221
  50   2.0000      -0.400144       -10.8885
  51   2.0000      -0.396786       -10.7971
  52   2.0000      -0.389093       -10.5878
  53   2.0000      -0.376076       -10.2336
  54   2.0000      -0.370094       -10.0708
  55   2.0000      -0.366502        -9.9730
  56   2.0000      -0.353607        -9.6221
  57   2.0000      -0.348144        -9.4735
  58   2.0000      -0.339397        -9.2355
  59   2.0000      -0.333028        -9.0622
  60   2.0000      -0.324167        -8.8210
  61   2.0000      -0.317623        -8.6430
  62   2.0000      -0.296796        -8.0762
  63   2.0000      -0.262584        -7.1453
  64   2.0000      -0.259768        -7.0686
  65   2.0000      -0.253184        -6.8895
  66   2.0000      -0.251037        -6.8311
  67   2.0000      -0.235631        -6.4119
  68   2.0000      -0.223361        -6.0780
  69   2.0000      -0.198132        -5.3915
  70   0.0000      -0.130645        -3.5550
  71   0.0000      -0.080420        -2.1883
  72   0.0000      -0.051597        -1.4040
  73   0.0000      -0.030286        -0.8241
  74   0.0000       0.021529         0.5858

MULLIKEN ATOMIC CHARGES
-----------------------
   0 C :   -0.130794
   1 C :   -0.126509
   2 C :   -0.226019
   3 C :    0.186180
   4 C :    0.137578
   5 C :   -0.215214
   6 C :    0.036965
   7 O :   -0.353900
   8 C :    0.199126
   9 C :   -0.251200
  10 C :   -0.138243
  11 C :   -0.305092
  12 C :    0.305032
  13 C :   -0.143541
  14 C :    0.018291
  15 O :   -0.438714
  16 N :   -0.042827
  17 C :   -0.331782
  18 C :   -0.127807
  19 O :   -0.403816
  20 H :    0.149180
  21 H :    0.148941
  22 H :    0.182489
  23 H :    0.181851
  24 H :    0.185340
  25 H :    0.147200
  26 H :    0.140572
  27 H :    0.310914
  28 H :    0.171058
  29 H :    0.144776
  30 H :    0.142814
  31 H :    0.147862
  32 H :    0.299291
Sum of atomic charges:    0.0000000

LOEWDIN ATOMIC CHARGES
----------------------
   0 C :   -0.142843
   1 C :   -0.139615
   2 C :   -0.101322
   3 C :   -0.025731
   4 C :   -0.035765
   5 C :   -0.096684
   6 C :    0.269907
   7 O :   -0.479038
   8 C :   -0.022983
   9 C :   -0.123327
  10 C :   -0.127114
  11 C :   -0.142584
  12 C :    0.201830
  13 C :   -0.034660
  14 C :    0.270822
  15 O :   -0.537147
  16 N :   -0.677984
  17 C :   -0.023594
  18 C :    0.030101
  19 O :   -0.603631
  20 H :    0.170759
  21 H :    0.170695
  22 H :    0.193129
  23 H :    0.191883
  24 H :    0.194073
  25 H :    0.171976
  26 H :    0.172865
  27 H :    0.296592
  28 H :    0.193066
  29 H :    0.174422
  30 H :    0.161812
  31 H :    0.182749
  32 H :    0.267344

  Mayer bond orders larger than 0.100000
B(  0-C ,  1-C ) :   1.3216 B(  0-C ,  5-C ) :   1.3566 B(  0-C , 20-H ) :   0.9558
B(  1-C ,  2-C ) :   1.3494 B(  1-C , 21-H ) :   0.9557 B(  2-C ,  3-C ) :   1.3554
B(  2-C , 15-O ) :   0.1026 B(  2-C , 22-H ) :   0.9602 B(  3-C ,  4-C ) :   1.5190
B(  3-C , 14-C ) :   0.9185 B(  3-C , 15-O ) :  -0.2025 B(  4-C ,  5-C ) :   1.3498
B(  4-C ,  6-C ) :   0.8548 B(  4-C ,  7-O ) :  -0.2223 B(  5-C ,  7-O ) :   0.1081
B(  5-C , 23-H ) :   0.9635 B(  6-C ,  7-O ) :   2.0982 B(  6-C ,  8-C ) :   0.8626
B(  7-O ,  8-C ) :  -0.2155 B(  7-O ,  9-C ) :   0.1225 B(  8-C ,  9-C ) :   1.4043
B(  8-C , 13-C ) :   1.2795 B(  9-C , 10-C ) :   1.2551 B(  9-C , 24-H ) :   0.9674
B( 10-C , 11-C ) :   1.3945 B( 10-C , 25-H ) :   0.9645 B( 11-C , 12-C ) :   1.1007
B( 11-C , 26-H ) :   0.9497 B( 12-C , 13-C ) :   1.2555 B( 12-C , 14-C ) :  -0.1099
B( 12-C , 16-N ) :   1.2908 B( 13-C , 14-C ) :   0.9442 B( 13-C , 15-O ) :  -0.1315
B( 14-C , 15-O ) :   1.8896 B( 16-N , 17-C ) :   0.8397 B( 16-N , 27-H ) :   0.8305
B( 17-C , 18-C ) :   0.8676 B( 17-C , 28-H ) :   0.9613 B( 17-C , 29-H ) :   0.9717
B( 18-C , 19-O ) :   0.9782 B( 18-C , 30-H ) :   0.9748 B( 18-C , 31-H ) :   0.9729
B( 19-O , 32-H ) :   0.8923

Dispersion correction           -0.015628683
FINAL SINGLE POINT ENERGY      -897.784357964744

DIPOLE MOMENT
-------------

Method             : SCF
Type of density    : Electron Density
Multiplicity       :   1
Irrep              :   0
Energy             :  -897.7849430354588094 Eh
Relativity type    :
Basis              : AO
                                X                 Y                 Z
Electronic contribution:    -11.432012658       2.509153177       0.834120174
Nuclear contribution   :     12.171353270      -2.572473492      -0.547213392
                        -----------------------------------------
Total Dipole Moment    :      0.739340612      -0.063320315       0.286906781
                        -----------------------------------------
Magnitude (a.u.)       :      0.795581237
Magnitude (Debye)      :      2.022206796

Rotational constants in cm-1:             0.022491             0.006976             0.005475
Rotational constants in MHz :           674.253730           209.140562           164.145044

                             ****ORCA TERMINATED NORMALLY****
TOTAL RUN TIME: 0 days 0 hours 2 minutes 6 seconds 248 msec
