                         Program Version 6.0.0  -   RELEASE  -
|  1> ! r2scan-3c def2/J RI DEFGRID2 scfconv6 printgap
|  2> %output
|  3>     printlevel normal
|  4> end
|  5> %cpcm
|  6>     smd true
|  7>     smdsolvent "water"
|  8> end
|  9> * xyz 0 1
| 10> C -4.6798661546 -1.0208239702 -0.2825676898
| 11> C -3.9724501065 -2.2065429503 -0.1399869126
| 12> C -2.5991000362 -2.1789367475 0.0168894851
| 13> C -1.9080456292 -0.9690641958 0.032614612
| 14> C -2.6229013049 0.2251667084 -0.1124641473
| 15> C -4.0074424209 0.1864904676 -0.2683884417
| 16> C -1.9309990012 1.5197757093 -0.1033687603
| 17> O -2.5453310665 2.5777040042 -0.2249983846
| 18> C -0.466008778 1.4903172572 0.0543323817
| 19> C 0.1883799931 2.709780403 0.0331115111
| 20> C 1.5727410737 2.7676037427 0.1677965355
| 21> C 2.2969775916 1.6168427504 0.3262656585
| 22> C 1.6727892415 0.3463565511 0.3643511498
| 23> C 0.2521915497 0.2819126207 0.2167024916
| 24> C -0.4425663542 -0.9880701217 0.2103527362
| 25> O 0.1309809484 -2.0838944971 0.3404813077
| 26> N 2.3865739276 -0.7708171943 0.5643225439
| 27> C 3.8205377679 -0.8775998708 0.6009459307
| 28> C 4.435452788 -0.8759034026 -0.8146561226
| 29> O 5.8107355694 -1.1691459619 -0.799912121
| 30> H -5.751380724 -1.0395268527 -0.4043341987
| 31> H -4.4924826942 -3.1515430828 -0.1506436039
| 32> H -2.0311716412 -3.0903759792 0.1309734779
| 33> H -4.5316808921 1.1244183963 -0.3772410915
| 34> H -0.4004143926 3.6052227727 -0.0929355427
| 35> H 2.0722325295 3.7233435763 0.1450136555
| 36> H 3.3667123274 1.6798457257 0.4274779405
| 37> H 1.8512789718 -1.6354263458 0.5118791306
| 38> H 4.0735740669 -1.8236792423 1.0823437094
| 39> H 4.2475602963 -0.0668826372 1.1967148402
| 40> H 4.2435818457 0.0856040581 -1.3081084606
| 41> H 3.9710237517 -1.6649630734 -1.4109108836
| 42> H 6.2870662956 -0.4728718258 -0.3260066435
| 43> *
| 44>
| 45>                          ****END OF INPUT****

CARTESIAN COORDINATES (ANGSTROEM)
---------------------------------
  C     -4.679866   -1.020824   -0.282568
  C     -3.972450   -2.206543   -0.139987
  C     -2.599100   -2.178937    0.016889
  C     -1.908046   -0.969064    0.032615
  C     -2.622901    0.225167   -0.112464
  C     -4.007442    0.186490   -0.268388
  C     -1.930999    1.519776   -0.103369
  O     -2.545331    2.577704   -0.224998
  C     -0.466009    1.490317    0.054332
  C      0.188380    2.709780    0.033112
  C      1.572741    2.767604    0.167797
  C      2.296978    1.616843    0.326266
  C      1.672789    0.346357    0.364351
  C      0.252192    0.281913    0.216702
  C     -0.442566   -0.988070    0.210353
  O      0.130981   -2.083894    0.340481
  N      2.386574   -0.770817    0.564323
  C      3.820538   -0.877600    0.600946
  C      4.435453   -0.875903   -0.814656
  O      5.810736   -1.169146   -0.799912
  H     -5.751381   -1.039527   -0.404334
  H     -4.492483   -3.151543   -0.150644
  H     -2.031172   -3.090376    0.130973
  H     -4.531681    1.124418   -0.377241
  H     -0.400414    3.605223   -0.092936
  H      2.072233    3.723344    0.145014
  H      3.366712    1.679846    0.427478
  H      1.851279   -1.635426    0.511879
  H      4.073574   -1.823679    1.082344
  H      4.247560   -0.066883    1.196715
  H      4.243582    0.085604   -1.308108
  H      3.971024   -1.664963   -1.410911
  H      6.287066   -0.472872   -0.326007

 Total Charge           Charge          ....    0
 Multiplicity           Mult            ....    1
 Number of Electrons    NEL             ....  140
 Basis Dimension        Dim             ....  465

ORBITAL ENERGIES
----------------

  NO   OCC          E(Eh)            E(eV)
   0   2.0000     -18.957107      -515.8491
   1   2.0000     -18.948876      -515.6251
   2   2.0000     -18.946651      -515.5646
   3   2.0000     -14.186753      -386.0412
   4   2.0000     -10.131693      -275.6974
   5   2.0000     -10.127705      -275.5889
   6   2.0000     -10.101572      -274.8778
   7   2.0000     -10.075751      -274.1751
   8   2.0000     -10.064099      -273.8581
   9   2.0000     -10.060209      -273.7522
  10   2.0000     -10.060014      -273.7469
  11   2.0000     -10.058326      -273.7010
  12   2.0000     -10.056586      -273.6536
  13   2.0000     -10.050186      -273.4795
  14   2.0000     -10.049964      -273.4734
  15   2.0000     -10.049726      -273.4669
  16   2.0000     -10.048317      -273.4286
  17   2.0000     -10.048100      -273.4227
  18   2.0000     -10.046471      -273.3784
  19   2.0000     -10.042110      -273.2597
  20   2.0000      -1.016001       -27.6468
  21   2.0000      -1.011899       -27.5352
  22   2.0000      -0.993442       -27.0329
  23   2.0000      -0.924607       -25.1598
  24   2.0000      -0.851274       -23.1644
  25   2.0000      -0.833047       -22.6684
  26   2.0000      -0.773136       -21.0381
  27   2.0000      -0.741817       -20.1859
  28   2.0000      -0.736884       -20.0516
  29   2.0000      -0.730232       -19.8706
  30   2.0000      -0.689995       -18.7757
  31   2.0000      -0.652070       -17.7437
  32   2.0000      -0.628466       -17.1014
  33   2.0000      -0.610860       -16.6223
  34   2.0000      -0.600363       -16.3367
  35   2.0000      -0.566873       -15.4254
  36   2.0000      -0.552056       -15.0222
  37   2.0000      -0.520814       -14.1721
  38   2.0000      -0.514053       -13.9881
  39   2.0000      -0.492010       -13.3883
  40   2.0000      -0.476172       -12.9573
  41   2.0000      -0.464082       -12.6283
  42   2.0000      -0.459823       -12.5124
  43   2.0000      -0.445262       -12.1162
  44   2.0000      -0.436266       -11.8714
  45   2.0000      -0.427019       -11.6198
  46   2.0000      -0.424131       -11.5412
  47   2.0000      -0.418581       -11.3902
  48   2.0000      -0.412384       -11.2215
  49   2.0000      -0.406366       -11.0578
  50   2.0000      -0.399102       -10.8601
  51   2.0000      -0.391107       -10.6426
  52   2.0000      -0.386556       -10.5187
  53   2.0000      -0.379407       -10.3242
  54   2.0000      -0.366151        -9.9635
  55   2.0000      -0.356342        -9.6966
  56   2.0000      -0.346201        -9.4206
  57   2.0000      -0.341198        -9.2845
  58   2.0000      -0.339114        -9.2278
  59   2.0000      -0.328866        -8.9489
  60   2.0000      -0.322336        -8.7712
  61   2.0000      -0.310213        -8.4413
  62   2.0000      -0.289114        -7.8672
  63   2.0000      -0.264785        -7.2052
  64   2.0000      -0.253255        -6.8914
  65   2.0000      -0.251739        -6.8502
  66   2.0000      -0.250572        -6.8184
  67   2.0000      -0.244269        -6.6469
  68   2.0000      -0.230837        -6.2814
  69   2.0000      -0.194155        -5.2832
  70   0.0000      -0.133691        -3.6379
  71   0.0000      -0.080436        -2.1888
  72   0.0000      -0.048843        -1.3291
  73   0.0000      -0.028190        -0.7671
  74   0.0000       0.024354         0.6627

MULLIKEN ATOMIC CHARGES
-----------------------
   0 C :   -0.169372
   1 C :   -0.158593
   2 C :   -0.241485
   3 C :    0.195271
   4 C :    0.138276
   5 C :   -0.228024
   6 C :    0.078805
   7 O :   -0.440908
   8 C :    0.188882
   9 C :   -0.255085
  10 C :   -0.185179
  11 C :   -0.286843
  12 C :    0.288969
  13 C :   -0.148841
  14 C :    0.035046
  15 O :   -0.501704
  16 N :   -0.068955
  17 C :   -0.313473
  18 C :   -0.138983
  19 O :   -0.488414
  20 H :    0.185316
  21 H :    0.185541
  22 H :    0.197415
  23 H :    0.195802
  24 H :    0.197211
  25 H :    0.183990
  26 H :    0.185022
  27 H :    0.341312
  28 H :    0.182855
  29 H :    0.177091
  30 H :    0.154672
  31 H :    0.158633
  32 H :    0.355750
Sum of atomic charges:    0.0000000

LOEWDIN ATOMIC CHARGES
----------------------
   0 C :   -0.139132
   1 C :   -0.132193
   2 C :   -0.108175
   3 C :   -0.027530
   4 C :   -0.042189
   5 C :   -0.101940
   6 C :    0.276537
   7 O :   -0.549087
   8 C :   -0.032169
   9 C :   -0.126039
  10 C :   -0.125086
  11 C :   -0.121206
  12 C :    0.201347
  13 C :   -0.039851
  14 C :    0.270887
  15 O :   -0.582491
  16 N :   -0.664746
  17 C :   -0.016338
  18 C :    0.032234
  19 O :   -0.635604
  20 H :    0.184293
  21 H :    0.184513
  22 H :    0.196737
  23 H :    0.194996
  24 H :    0.195906
  25 H :    0.186198
  26 H :    0.192245
  27 H :    0.298825
  28 H :    0.198579
  29 H :    0.189716
  30 H :    0.169485
  31 H :    0.183983
  32 H :    0.287293

  Mayer bond orders larger than 0.100000
B(  0-C ,  1-C ) :   1.3098 B(  0-C ,  5-C ) :   1.3536 B(  0-C , 20-H ) :   0.9603
B(  1-C ,  2-C ) :   1.3395 B(  1-C , 21-H ) :   0.9602 B(  2-C ,  3-C ) :   1.2990
B(  2-C , 15-O ) :   0.1003 B(  2-C , 22-H ) :   0.9725 B(  3-C ,  4-C ) :   1.5084
B(  3-C , 14-C ) :   0.9128 B(  3-C , 15-O ) :  -0.2020 B(  4-C ,  5-C ) :   1.2879
B(  4-C ,  6-C ) :   0.8639 B(  4-C ,  7-O ) :  -0.2230 B(  5-C ,  7-O ) :   0.1043
B(  5-C , 23-H ) :   0.9740 B(  6-C ,  7-O ) :   2.0594 B(  6-C ,  8-C ) :   0.8741
B(  7-O ,  8-C ) :  -0.2151 B(  7-O ,  9-C ) :   0.1213 B(  8-C ,  9-C ) :   1.3348
B(  8-C , 13-C ) :   1.2646 B(  9-C , 10-C ) :   1.2318 B(  9-C , 24-H ) :   0.9805
B( 10-C , 11-C ) :   1.3859 B( 10-C , 25-H ) :   0.9758 B( 11-C , 12-C ) :   1.0966
B( 11-C , 26-H ) :   0.9563 B( 12-C , 13-C ) :   1.2144 B( 12-C , 14-C ) :  -0.1000
B( 12-C , 16-N ) :   1.3048 B( 13-C , 14-C ) :   0.9622 B( 13-C , 15-O ) :  -0.1359
B( 14-C , 15-O ) :   1.8686 B( 16-N , 17-C ) :   0.8519 B( 16-N , 27-H ) :   0.8265
B( 17-C , 18-C ) :   0.8654 B( 17-C , 28-H ) :   0.9539 B( 17-C , 29-H ) :   0.9587
B( 18-C , 19-O ) :   0.9739 B( 18-C , 30-H ) :   0.9643 B( 18-C , 31-H ) :   0.9739
B( 19-O , 32-H ) :   0.8633

Dispersion correction           -0.015628683
FINAL SINGLE POINT ENERGY      -897.805534177209

DIPOLE MOMENT
-------------

Method             : SCF
Type of density    : Electron Density
Multiplicity       :   1
Irrep              :   0
Energy             :  -897.8061192479234478 Eh
Relativity type    :
Basis              : AO
                                X                 Y                 Z
Electronic contribution:    -10.804541600       2.535758030       0.998611432
Nuclear contribution   :     12.171353270      -2.572473492      -0.547213392
                        -----------------------------------------
Total Dipole Moment    :      1.366811671      -0.036715462       0.451398039
                        -----------------------------------------
Magnitude (a.u.)       :      1.439889703
Magnitude (Debye)      :      3.659908768

Rotational constants in cm-1:             0.022491             0.006976             0.005475
Rotational constants in MHz :           674.253730           209.140562           164.145044

                             ****ORCA TERMINATED NORMALLY****
TOTAL RUN TIME: 0 days 0 hours 2 minutes 35 seconds 500 msec
