                         Program Version 6.0.0  -   RELEASE  -
|  1> ! r2scan-3c def2/J RI DEFGRID2 scfconv6 printgap
|  2> %output
|  3>     printlevel normal
|  4> end
|  5> * xyz 0 1
|  6> C -4.5691782477 -1.1088329877 0.1919384746
|  7> C -3.8301519104 -2.2666550144 -0.007963965
|  8> C -2.4570471652 -2.1953393818 -0.1526090154
|  9> C -1.7982477574 -0.968585904 -0.101046322
| 10> C -2.5450244415 0.1977068979 0.1003708058
| 11> C -3.928707731 0.114677638 0.2457373351
| 12> C -1.8877206592 1.5089890945 0.1619277072
| 13> O -2.5291884706 2.5412526389 0.3476854744
| 14> C -0.4243046533 1.5285587328 -0.0096609822
| 15> C 0.1957131994 2.7645005443 0.0490645272
| 16> C 1.5764498308 2.8676231907 -0.0991361541
| 17> C 2.3325048389 1.7456866225 -0.3077297745
| 18> C 1.7427638605 0.4599752324 -0.3840825735
| 19> C 0.3263913597 0.3480069263 -0.2228361669
| 20> C -0.3315933875 -0.9401484615 -0.2632124409
| 21> O 0.2759677038 -2.0145158197 -0.4203618676
| 22> N 2.4886858811 -0.6289942346 -0.6144275116
| 23> C 3.9232591436 -0.6734388851 -0.7463349917
| 24> C 4.6430540749 -0.6483619133 0.6158567158
| 25> O 4.5510327634 -1.8740074075 1.3053458461
| 26> H -5.6404604551 -1.1616867323 0.3054351024
| 27> H -4.3253285499 -3.22401318 -0.0507761559
| 28> H -1.8649702055 -3.0848823522 -0.3090267031
| 29> H -4.4780379622 1.0315674732 0.400551926
| 30> H -0.4166129949 3.6374736559 0.2146156904
| 31> H 2.04852434 3.8359949316 -0.0465108408
| 32> H 3.3997258509 1.8404600373 -0.4149572028
| 33> H 1.9747403234 -1.5072783175 -0.6326776202
| 34> H 4.277448794 0.161235536 -1.3539717122
| 35> H 4.1816098374 -1.6042839686 -1.2526019756
| 36> H 4.2461592737 0.1676884247 1.2327510522
| 37> H 5.7107447835 -0.4865095455 0.456824975
| 38> H 3.6233715298 -2.0631242013 1.500902958
| 39> *
| 40>
| 41>                          ****END OF INPUT****

CARTESIAN COORDINATES (ANGSTROEM)
---------------------------------
  C     -4.569178   -1.108833    0.191938
  C     -3.830152   -2.266655   -0.007964
  C     -2.457047   -2.195339   -0.152609
  C     -1.798248   -0.968586   -0.101046
  C     -2.545024    0.197707    0.100371
  C     -3.928708    0.114678    0.245737
  C     -1.887721    1.508989    0.161928
  O     -2.529188    2.541253    0.347685
  C     -0.424305    1.528559   -0.009661
  C      0.195713    2.764501    0.049065
  C      1.576450    2.867623   -0.099136
  C      2.332505    1.745687   -0.307730
  C      1.742764    0.459975   -0.384083
  C      0.326391    0.348007   -0.222836
  C     -0.331593   -0.940148   -0.263212
  O      0.275968   -2.014516   -0.420362
  N      2.488686   -0.628994   -0.614428
  C      3.923259   -0.673439   -0.746335
  C      4.643054   -0.648362    0.615857
  O      4.551033   -1.874007    1.305346
  H     -5.640460   -1.161687    0.305435
  H     -4.325329   -3.224013   -0.050776
  H     -1.864970   -3.084882   -0.309027
  H     -4.478038    1.031567    0.400552
  H     -0.416613    3.637474    0.214616
  H      2.048524    3.835995   -0.046511
  H      3.399726    1.840460   -0.414957
  H      1.974740   -1.507278   -0.632678
  H      4.277449    0.161236   -1.353972
  H      4.181610   -1.604284   -1.252602
  H      4.246159    0.167688    1.232751
  H      5.710745   -0.486510    0.456825
  H      3.623372   -2.063124    1.500903

 Total Charge           Charge          ....    0
 Multiplicity           Mult            ....    1
 Number of Electrons    NEL             ....  140
 Basis Dimension        Dim             ....  465

ORBITAL ENERGIES
----------------

  NO   OCC          E(Eh)            E(eV)
   0   2.0000     -18.960646      -515.9454
   1   2.0000     -18.946063      -515.5486
   2   2.0000     -18.940422      -515.3951
   3   2.0000     -14.193910      -386.2359
   4   2.0000     -10.128157      -275.6012
   5   2.0000     -10.124612      -275.5047
   6   2.0000     -10.107969      -275.0518
   7   2.0000     -10.091706      -274.6093
   8   2.0000     -10.084098      -274.4022
   9   2.0000     -10.062232      -273.8073
  10   2.0000     -10.061960      -273.7999
  11   2.0000     -10.060963      -273.7727
  12   2.0000     -10.059587      -273.7353
  13   2.0000     -10.059002      -273.7194
  14   2.0000     -10.056245      -273.6443
  15   2.0000     -10.055302      -273.6187
  16   2.0000     -10.055047      -273.6117
  17   2.0000     -10.052724      -273.5485
  18   2.0000     -10.052159      -273.5332
  19   2.0000     -10.044268      -273.3184
  20   2.0000      -1.010421       -27.4950
  21   2.0000      -1.004675       -27.3386
  22   2.0000      -0.998974       -27.1835
  23   2.0000      -0.932824       -25.3834
  24   2.0000      -0.853510       -23.2252
  25   2.0000      -0.837329       -22.7849
  26   2.0000      -0.777641       -21.1607
  27   2.0000      -0.750475       -20.4215
  28   2.0000      -0.739722       -20.1288
  29   2.0000      -0.735110       -20.0034
  30   2.0000      -0.703182       -19.1345
  31   2.0000      -0.655149       -17.8275
  32   2.0000      -0.636619       -17.3233
  33   2.0000      -0.616939       -16.7878
  34   2.0000      -0.608985       -16.5713
  35   2.0000      -0.572330       -15.5739
  36   2.0000      -0.555769       -15.1232
  37   2.0000      -0.525939       -14.3115
  38   2.0000      -0.519628       -14.1398
  39   2.0000      -0.500656       -13.6235
  40   2.0000      -0.487136       -13.2556
  41   2.0000      -0.470812       -12.8115
  42   2.0000      -0.463706       -12.6181
  43   2.0000      -0.451818       -12.2946
  44   2.0000      -0.445697       -12.1280
  45   2.0000      -0.434658       -11.8277
  46   2.0000      -0.430948       -11.7267
  47   2.0000      -0.418915       -11.3993
  48   2.0000      -0.409886       -11.1536
  49   2.0000      -0.406708       -11.0671
  50   2.0000      -0.402488       -10.9523
  51   2.0000      -0.394063       -10.7230
  52   2.0000      -0.388132       -10.5616
  53   2.0000      -0.378047       -10.2872
  54   2.0000      -0.372396       -10.1334
  55   2.0000      -0.368224       -10.0199
  56   2.0000      -0.354811        -9.6549
  57   2.0000      -0.349588        -9.5128
  58   2.0000      -0.341080        -9.2813
  59   2.0000      -0.334629        -9.1057
  60   2.0000      -0.325854        -8.8669
  61   2.0000      -0.317802        -8.6478
  62   2.0000      -0.297059        -8.0834
  63   2.0000      -0.264282        -7.1915
  64   2.0000      -0.255166        -6.9434
  65   2.0000      -0.253805        -6.9064
  66   2.0000      -0.252239        -6.8638
  67   2.0000      -0.237799        -6.4708
  68   2.0000      -0.225173        -6.1273
  69   2.0000      -0.200622        -5.4592
  70   0.0000      -0.132593        -3.6080
  71   0.0000      -0.082175        -2.2361
  72   0.0000      -0.053250        -1.4490
  73   0.0000      -0.032098        -0.8734
  74   0.0000       0.019966         0.5433

MULLIKEN ATOMIC CHARGES
-----------------------
   0 C :   -0.130123
   1 C :   -0.126141
   2 C :   -0.226768
   3 C :    0.188305
   4 C :    0.137622
   5 C :   -0.214427
   6 C :    0.037646
   7 O :   -0.353350
   8 C :    0.195508
   9 C :   -0.248951
  10 C :   -0.140849
  11 C :   -0.307794
  12 C :    0.307620
  13 C :   -0.145192
  14 C :    0.013989
  15 O :   -0.441481
  16 N :   -0.060371
  17 C :   -0.305808
  18 C :   -0.126837
  19 O :   -0.417215
  20 H :    0.149407
  21 H :    0.149152
  22 H :    0.182337
  23 H :    0.182041
  24 H :    0.185496
  25 H :    0.147850
  26 H :    0.145347
  27 H :    0.316111
  28 H :    0.147017
  29 H :    0.169412
  30 H :    0.141744
  31 H :    0.143532
  32 H :    0.305169
Sum of atomic charges:    0.0000000

LOEWDIN ATOMIC CHARGES
----------------------
   0 C :   -0.142171
   1 C :   -0.139244
   2 C :   -0.101331
   3 C :   -0.026255
   4 C :   -0.035596
   5 C :   -0.096247
   6 C :    0.269970
   7 O :   -0.478106
   8 C :   -0.023015
   9 C :   -0.122268
  10 C :   -0.125431
  11 C :   -0.142879
  12 C :    0.200383
  13 C :   -0.034760
  14 C :    0.270412
  15 O :   -0.539843
  16 N :   -0.681545
  17 C :   -0.030183
  18 C :    0.024582
  19 O :   -0.600809
  20 H :    0.170964
  21 H :    0.170879
  22 H :    0.193053
  23 H :    0.192056
  24 H :    0.194207
  25 H :    0.172495
  26 H :    0.175167
  27 H :    0.295404
  28 H :    0.180387
  29 H :    0.195873
  30 H :    0.166132
  31 H :    0.179023
  32 H :    0.268692

  Mayer bond orders larger than 0.100000
B(  0-C ,  1-C ) :   1.3216 B(  0-C ,  5-C ) :   1.3559 B(  0-C , 20-H ) :   0.9559
B(  1-C ,  2-C ) :   1.3495 B(  1-C , 21-H ) :   0.9557 B(  2-C ,  3-C ) :   1.3546
B(  2-C , 15-O ) :   0.1027 B(  2-C , 22-H ) :   0.9604 B(  3-C ,  4-C ) :   1.5184
B(  3-C , 14-C ) :   0.9199 B(  3-C , 15-O ) :  -0.2040 B(  4-C ,  5-C ) :   1.3504
B(  4-C ,  6-C ) :   0.8548 B(  4-C ,  7-O ) :  -0.2225 B(  5-C ,  7-O ) :   0.1079
B(  5-C , 23-H ) :   0.9635 B(  6-C ,  7-O ) :   2.0991 B(  6-C ,  8-C ) :   0.8628
B(  7-O ,  8-C ) :  -0.2159 B(  7-O ,  9-C ) :   0.1225 B(  8-C ,  9-C ) :   1.4030
B(  8-C , 13-C ) :   1.2784 B(  9-C , 10-C ) :   1.2513 B(  9-C , 24-H ) :   0.9666
B( 10-C , 11-C ) :   1.3933 B( 10-C , 25-H ) :   0.9664 B( 11-C , 12-C ) :   1.1059
B( 11-C , 26-H ) :   0.9499 B( 12-C , 13-C ) :   1.2484 B( 12-C , 14-C ) :  -0.1099
B( 12-C , 16-N ) :   1.2916 B( 13-C , 14-C ) :   0.9415 B( 13-C , 15-O ) :  -0.1320
B( 14-C , 15-O ) :   1.8884 B( 16-N , 17-C ) :   0.8544 B( 16-N , 27-H ) :   0.8236
B( 17-C , 18-C ) :   0.8779 B( 17-C , 28-H ) :   0.9666 B( 17-C , 29-H ) :   0.9602
B( 18-C , 19-O ) :   0.9689 B( 18-C , 30-H ) :   0.9755 B( 18-C , 31-H ) :   0.9795
B( 19-O , 32-H ) :   0.8852

Dispersion correction           -0.015742949
FINAL SINGLE POINT ENERGY      -897.786554170501

DIPOLE MOMENT
-------------

Method             : SCF
Type of density    : Electron Density
Multiplicity       :   1
Irrep              :   0
Energy             :  -897.7871061002529132 Eh
Relativity type    :
Basis              : AO
                                X                 Y                 Z
Electronic contribution:    -11.553978776       2.203273780      -0.382687890
Nuclear contribution   :     11.997109766      -2.328829172       0.062311405
                        -----------------------------------------
Total Dipole Moment    :      0.443130990      -0.125555392      -0.320376484
                        -----------------------------------------
Magnitude (a.u.)       :      0.561043958
Magnitude (Debye)      :      1.426060410

Rotational constants in cm-1:             0.020790             0.007645             0.005835
Rotational constants in MHz :           623.260752           229.188503           174.914542

                             ****ORCA TERMINATED NORMALLY****
TOTAL RUN TIME: 0 days 0 hours 2 minutes 9 seconds 698 msec
