                         Program Version 6.0.0  -   RELEASE  -
|  1> ! r2scan-3c def2/J RI DEFGRID2 scfconv6 printgap
|  2> %output
|  3>     printlevel normal
|  4> end
|  5> %cpcm
|  6>     smd true
|  7>     smdsolvent "water"
|  8> end
|  9> * xyz 0 1
| 10> C -4.5691782477 -1.1088329877 0.1919384746
| 11> C -3.8301519104 -2.2666550144 -0.007963965
| 12> C -2.4570471652 -2.1953393818 -0.1526090154
| 13> C -1.7982477574 -0.968585904 -0.101046322
| 14> C -2.5450244415 0.1977068979 0.1003708058
| 15> C -3.928707731 0.114677638 0.2457373351
| 16> C -1.8877206592 1.5089890945 0.1619277072
| 17> O -2.5291884706 2.5412526389 0.3476854744
| 18> C -0.4243046533 1.5285587328 -0.0096609822
| 19> C 0.1957131994 2.7645005443 0.0490645272
| 20> C 1.5764498308 2.8676231907 -0.0991361541
| 21> C 2.3325048389 1.7456866225 -0.3077297745
| 22> C 1.7427638605 0.4599752324 -0.3840825735
| 23> C 0.3263913597 0.3480069263 -0.2228361669
| 24> C -0.3315933875 -0.9401484615 -0.2632124409
| 25> O 0.2759677038 -2.0145158197 -0.4203618676
| 26> N 2.4886858811 -0.6289942346 -0.6144275116
| 27> C 3.9232591436 -0.6734388851 -0.7463349917
| 28> C 4.6430540749 -0.6483619133 0.6158567158
| 29> O 4.5510327634 -1.8740074075 1.3053458461
| 30> H -5.6404604551 -1.1616867323 0.3054351024
| 31> H -4.3253285499 -3.22401318 -0.0507761559
| 32> H -1.8649702055 -3.0848823522 -0.3090267031
| 33> H -4.4780379622 1.0315674732 0.400551926
| 34> H -0.4166129949 3.6374736559 0.2146156904
| 35> H 2.04852434 3.8359949316 -0.0465108408
| 36> H 3.3997258509 1.8404600373 -0.4149572028
| 37> H 1.9747403234 -1.5072783175 -0.6326776202
| 38> H 4.277448794 0.161235536 -1.3539717122
| 39> H 4.1816098374 -1.6042839686 -1.2526019756
| 40> H 4.2461592737 0.1676884247 1.2327510522
| 41> H 5.7107447835 -0.4865095455 0.456824975
| 42> H 3.6233715298 -2.0631242013 1.500902958
| 43> *
| 44>
| 45>                          ****END OF INPUT****

CARTESIAN COORDINATES (ANGSTROEM)
---------------------------------
  C     -4.569178   -1.108833    0.191938
  C     -3.830152   -2.266655   -0.007964
  C     -2.457047   -2.195339   -0.152609
  C     -1.798248   -0.968586   -0.101046
  C     -2.545024    0.197707    0.100371
  C     -3.928708    0.114678    0.245737
  C     -1.887721    1.508989    0.161928
  O     -2.529188    2.541253    0.347685
  C     -0.424305    1.528559   -0.009661
  C      0.195713    2.764501    0.049065
  C      1.576450    2.867623   -0.099136
  C      2.332505    1.745687   -0.307730
  C      1.742764    0.459975   -0.384083
  C      0.326391    0.348007   -0.222836
  C     -0.331593   -0.940148   -0.263212
  O      0.275968   -2.014516   -0.420362
  N      2.488686   -0.628994   -0.614428
  C      3.923259   -0.673439   -0.746335
  C      4.643054   -0.648362    0.615857
  O      4.551033   -1.874007    1.305346
  H     -5.640460   -1.161687    0.305435
  H     -4.325329   -3.224013   -0.050776
  H     -1.864970   -3.084882   -0.309027
  H     -4.478038    1.031567    0.400552
  H     -0.416613    3.637474    0.214616
  H      2.048524    3.835995   -0.046511
  H      3.399726    1.840460   -0.414957
  H      1.974740   -1.507278   -0.632678
  H      4.277449    0.161236   -1.353972
  H      4.181610   -1.604284   -1.252602
  H      4.246159    0.167688    1.232751
  H      5.710745   -0.486510    0.456825
  H      3.623372   -2.063124    1.500903

 Total Charge           Charge          ....    0
 Multiplicity           Mult            ....    1
 Number of Electrons    NEL             ....  140
 Basis Dimension        Dim             ....  465

ORBITAL ENERGIES
----------------

  NO   OCC          E(Eh)            E(eV)
   0   2.0000     -18.954885      -515.7886
   1   2.0000     -18.949139      -515.6323
   2   2.0000     -18.946875      -515.5707
   3   2.0000     -14.185735      -386.0135
   4   2.0000     -10.131937      -275.7040
   5   2.0000     -10.127851      -275.5928
   6   2.0000     -10.101408      -274.8733
   7   2.0000     -10.075455      -274.1671
   8   2.0000     -10.064306      -273.8637
   9   2.0000     -10.060368      -273.7565
  10   2.0000     -10.060253      -273.7534
  11   2.0000     -10.058488      -273.7054
  12   2.0000     -10.056822      -273.6601
  13   2.0000     -10.050423      -273.4859
  14   2.0000     -10.050083      -273.4767
  15   2.0000     -10.049819      -273.4695
  16   2.0000     -10.048415      -273.4313
  17   2.0000     -10.048241      -273.4265
  18   2.0000     -10.046519      -273.3797
  19   2.0000     -10.042317      -273.2653
  20   2.0000      -1.016177       -27.6516
  21   2.0000      -1.011850       -27.5338
  22   2.0000      -0.992187       -26.9988
  23   2.0000      -0.923326       -25.1250
  24   2.0000      -0.851378       -23.1672
  25   2.0000      -0.832864       -22.6634
  26   2.0000      -0.773270       -21.0417
  27   2.0000      -0.741443       -20.1757
  28   2.0000      -0.736982       -20.0543
  29   2.0000      -0.730323       -19.8731
  30   2.0000      -0.692728       -18.8501
  31   2.0000      -0.652437       -17.7537
  32   2.0000      -0.629400       -17.1268
  33   2.0000      -0.610267       -16.6062
  34   2.0000      -0.600466       -16.3395
  35   2.0000      -0.565651       -15.3921
  36   2.0000      -0.551530       -15.0079
  37   2.0000      -0.520985       -14.1767
  38   2.0000      -0.512815       -13.9544
  39   2.0000      -0.492231       -13.3943
  40   2.0000      -0.476235       -12.9590
  41   2.0000      -0.464366       -12.6360
  42   2.0000      -0.459837       -12.5128
  43   2.0000      -0.445263       -12.1162
  44   2.0000      -0.436762       -11.8849
  45   2.0000      -0.428175       -11.6512
  46   2.0000      -0.424345       -11.5470
  47   2.0000      -0.417970       -11.3735
  48   2.0000      -0.412891       -11.2353
  49   2.0000      -0.406525       -11.0621
  50   2.0000      -0.399430       -10.8690
  51   2.0000      -0.391658       -10.6575
  52   2.0000      -0.384393       -10.4599
  53   2.0000      -0.377800       -10.2805
  54   2.0000      -0.366775        -9.9804
  55   2.0000      -0.356395        -9.6980
  56   2.0000      -0.346098        -9.4178
  57   2.0000      -0.340460        -9.2644
  58   2.0000      -0.339729        -9.2445
  59   2.0000      -0.329231        -8.9588
  60   2.0000      -0.322658        -8.7800
  61   2.0000      -0.313402        -8.5281
  62   2.0000      -0.290786        -7.9127
  63   2.0000      -0.264911        -7.2086
  64   2.0000      -0.252298        -6.8654
  65   2.0000      -0.251244        -6.8367
  66   2.0000      -0.248732        -6.7683
  67   2.0000      -0.244613        -6.6563
  68   2.0000      -0.231213        -6.2916
  69   2.0000      -0.194786        -5.3004
  70   0.0000      -0.133994        -3.6462
  71   0.0000      -0.080562        -2.1922
  72   0.0000      -0.049036        -1.3343
  73   0.0000      -0.028381        -0.7723
  74   0.0000       0.024094         0.6556

MULLIKEN ATOMIC CHARGES
-----------------------
   0 C :   -0.169312
   1 C :   -0.158412
   2 C :   -0.242126
   3 C :    0.197727
   4 C :    0.138651
   5 C :   -0.227791
   6 C :    0.079130
   7 O :   -0.440757
   8 C :    0.187302
   9 C :   -0.255983
  10 C :   -0.188106
  11 C :   -0.292133
  12 C :    0.298995
  13 C :   -0.152152
  14 C :    0.034091
  15 O :   -0.502857
  16 N :   -0.064477
  17 C :   -0.313935
  18 C :   -0.133551
  19 O :   -0.496527
  20 H :    0.185368
  21 H :    0.185549
  22 H :    0.197428
  23 H :    0.195722
  24 H :    0.197252
  25 H :    0.184015
  26 H :    0.186606
  27 H :    0.343082
  28 H :    0.176417
  29 H :    0.186284
  30 H :    0.152588
  31 H :    0.161237
  32 H :    0.350676
Sum of atomic charges:    0.0000000

LOEWDIN ATOMIC CHARGES
----------------------
   0 C :   -0.138981
   1 C :   -0.132075
   2 C :   -0.108050
   3 C :   -0.027543
   4 C :   -0.042137
   5 C :   -0.101787
   6 C :    0.276784
   7 O :   -0.548570
   8 C :   -0.031951
   9 C :   -0.126078
  10 C :   -0.124268
  11 C :   -0.123032
  12 C :    0.201075
  13 C :   -0.039098
  14 C :    0.270924
  15 O :   -0.582624
  16 N :   -0.663090
  17 C :   -0.022864
  18 C :    0.028166
  19 O :   -0.637894
  20 H :    0.184331
  21 H :    0.184537
  22 H :    0.196736
  23 H :    0.195004
  24 H :    0.195912
  25 H :    0.186221
  26 H :    0.192569
  27 H :    0.298147
  28 H :    0.194561
  29 H :    0.202033
  30 H :    0.173107
  31 H :    0.185958
  32 H :    0.283977

  Mayer bond orders larger than 0.100000
B(  0-C ,  1-C ) :   1.3098 B(  0-C ,  5-C ) :   1.3533 B(  0-C , 20-H ) :   0.9603
B(  1-C ,  2-C ) :   1.3393 B(  1-C , 21-H ) :   0.9602 B(  2-C ,  3-C ) :   1.2992
B(  2-C , 15-O ) :   0.1004 B(  2-C , 22-H ) :   0.9725 B(  3-C ,  4-C ) :   1.5087
B(  3-C , 14-C ) :   0.9142 B(  3-C , 15-O ) :  -0.2028 B(  4-C ,  5-C ) :   1.2879
B(  4-C ,  6-C ) :   0.8636 B(  4-C ,  7-O ) :  -0.2235 B(  5-C ,  7-O ) :   0.1042
B(  5-C , 23-H ) :   0.9740 B(  6-C ,  7-O ) :   2.0609 B(  6-C ,  8-C ) :   0.8736
B(  7-O ,  8-C ) :  -0.2158 B(  7-O ,  9-C ) :   0.1213 B(  8-C ,  9-C ) :   1.3335
B(  8-C , 13-C ) :   1.2634 B(  9-C , 10-C ) :   1.2317 B(  9-C , 24-H ) :   0.9803
B( 10-C , 11-C ) :   1.3886 B( 10-C , 25-H ) :   0.9762 B( 11-C , 12-C ) :   1.0932
B( 11-C , 26-H ) :   0.9548 B( 12-C , 13-C ) :   1.2131 B( 12-C , 14-C ) :  -0.1024
B( 12-C , 16-N ) :   1.3095 B( 13-C , 14-C ) :   0.9609 B( 13-C , 15-O ) :  -0.1331
B( 14-C , 15-O ) :   1.8644 B( 16-N , 17-C ) :   0.8500 B( 16-N , 27-H ) :   0.8216
B( 17-C , 18-C ) :   0.8865 B( 17-C , 28-H ) :   0.9563 B( 17-C , 29-H ) :   0.9570
B( 18-C , 19-O ) :   0.9527 B( 18-C , 30-H ) :   0.9675 B( 18-C , 31-H ) :   0.9732
B( 19-O , 32-H ) :   0.8630

Dispersion correction           -0.015742949
FINAL SINGLE POINT ENERGY      -897.806223746476

DIPOLE MOMENT
-------------

Method             : SCF
Type of density    : Electron Density
Multiplicity       :   1
Irrep              :   0
Energy             :  -897.8067756762281988 Eh
Relativity type    :
Basis              : AO
                                X                 Y                 Z
Electronic contribution:    -11.012962286       2.153716834      -0.542414223
Nuclear contribution   :     11.997109766      -2.328829172       0.062311405
                        -----------------------------------------
Total Dipole Moment    :      0.984147480      -0.175112338      -0.480102818
                        -----------------------------------------
Magnitude (a.u.)       :      1.108922589
Magnitude (Debye)      :      2.818657219

Rotational constants in cm-1:             0.020790             0.007645             0.005835
Rotational constants in MHz :           623.260752           229.188503           174.914542

                             ****ORCA TERMINATED NORMALLY****
TOTAL RUN TIME: 0 days 0 hours 2 minutes 38 seconds 201 msec
