                         Program Version 6.0.0  -   RELEASE  -
|  1> ! pbe def2-sv(p) def2/J RI DEFGRID1 loosescf d4 GCP(DFT/SV(P)) printgap
|  2> %output
|  3>     printlevel normal
|  4> end
|  5> * xyz 0 1
|  6> C -3.0063752126 -0.5967269784 -0.7836788164
|  7> C -2.4981316687 0.3746550693 0.2748189103
|  8> C -1.1940289824 -0.096937546 0.9277336219
|  9> C 0.0088902918 0.0576980149 0.0321229062
| 10> O 0.0463717452 -0.1630564055 -1.1595432442
| 11> O 1.0597978693 0.4843362547 0.7278926857
| 12> C 2.3152957422 0.645808245 0.0468441746
| 13> C 3.1037108941 -0.6549676359 0.0361891213
| 14> H -3.916886871 -0.2159116415 -1.238698462
| 15> H -2.2591320571 -0.7287322169 -1.5615261417
| 16> H -3.2205732804 -1.566253033 -0.3402434937
| 17> H -3.2509177406 0.4837173981 1.0568971899
| 18> H -2.3386690407 1.3551248783 -0.1780794803
| 19> H -1.2781390303 -1.1575128286 1.1763591755
| 20> H -0.9926454281 0.4558127702 1.8451290604
| 21> H 2.1169853923 0.9853830919 -0.9743857316
| 22> H 2.836048336 1.4209976948 0.6097706124
| 23> H 3.2436654927 -1.0153810233 1.0517287123
| 24> H 2.5701417381 -1.4094970857 -0.5376644819
| 25> H 4.0728133556 -0.4845806932 -0.4212260383
| 26> *
| 27>
| 28>                          ****END OF INPUT****

CARTESIAN COORDINATES (ANGSTROEM)
---------------------------------
  C     -3.006375   -0.596727   -0.783679
  C     -2.498132    0.374655    0.274819
  C     -1.194029   -0.096938    0.927734
  C      0.008890    0.057698    0.032123
  O      0.046372   -0.163056   -1.159543
  O      1.059798    0.484336    0.727893
  C      2.315296    0.645808    0.046844
  C      3.103711   -0.654968    0.036189
  H     -3.916887   -0.215912   -1.238698
  H     -2.259132   -0.728732   -1.561526
  H     -3.220573   -1.566253   -0.340243
  H     -3.250918    0.483717    1.056897
  H     -2.338669    1.355125   -0.178079
  H     -1.278139   -1.157513    1.176359
  H     -0.992645    0.455813    1.845129
  H      2.116985    0.985383   -0.974386
  H      2.836048    1.420998    0.609771
  H      3.243665   -1.015381    1.051729
  H      2.570142   -1.409497   -0.537664
  H      4.072813   -0.484581   -0.421226

 Total Charge           Charge          ....    0
 Multiplicity           Mult            ....    1
 Number of Electrons    NEL             ....   64
 Basis Dimension        Dim             ....  136

ORBITAL ENERGIES
----------------

  NO   OCC          E(Eh)            E(eV)
   0   2.0000     -18.797280      -511.5000
   1   2.0000     -18.734016      -509.7785
   2   2.0000     -10.006909      -272.3018
   3   2.0000      -9.946194      -270.6497
   4   2.0000      -9.897248      -269.3178
   5   2.0000      -9.889847      -269.1164
   6   2.0000      -9.887397      -269.0497
   7   2.0000      -9.865966      -268.4666
   8   2.0000      -1.004320       -27.3289
   9   2.0000      -0.910668       -24.7805
  10   2.0000      -0.724951       -19.7269
  11   2.0000      -0.696141       -18.9430
  12   2.0000      -0.635489       -17.2925
  13   2.0000      -0.586829       -15.9684
  14   2.0000      -0.530542       -14.4368
  15   2.0000      -0.494812       -13.4645
  16   2.0000      -0.454481       -12.3671
  17   2.0000      -0.429042       -11.6748
  18   2.0000      -0.417420       -11.3586
  19   2.0000      -0.401728       -10.9316
  20   2.0000      -0.388577       -10.5737
  21   2.0000      -0.373396       -10.1606
  22   2.0000      -0.362153        -9.8547
  23   2.0000      -0.353738        -9.6257
  24   2.0000      -0.333220        -9.0674
  25   2.0000      -0.324170        -8.8211
  26   2.0000      -0.300839        -8.1862
  27   2.0000      -0.299684        -8.1548
  28   2.0000      -0.295367        -8.0374
  29   2.0000      -0.287378        -7.8200
  30   2.0000      -0.256590        -6.9822
  31   2.0000      -0.217358        -5.9146
  32   0.0000      -0.020849        -0.5673
  33   0.0000       0.043348         1.1796
  34   0.0000       0.054979         1.4961
  35   0.0000       0.079254         2.1566
  36   0.0000       0.083799         2.2803

MULLIKEN ATOMIC CHARGES
-----------------------
   0 C :   -0.293565
   1 C :   -0.183385
   2 C :   -0.149699
   3 C :    0.108532
   4 O :   -0.204210
   5 O :   -0.238010
   6 C :   -0.014646
   7 C :   -0.303394
   8 H :    0.099287
   9 H :    0.130352
  10 H :    0.090735
  11 H :    0.089653
  12 H :    0.095999
  13 H :    0.113078
  14 H :    0.099652
  15 H :    0.108127
  16 H :    0.101204
  17 H :    0.113034
  18 H :    0.125166
  19 H :    0.112090
Sum of atomic charges:    0.0000000

LOEWDIN ATOMIC CHARGES
----------------------
   0 C :   -0.349882
   1 C :   -0.225106
   2 C :   -0.249369
   3 C :    0.043171
   4 O :   -0.167898
   5 O :   -0.068815
   6 C :   -0.114453
   7 C :   -0.355846
   8 H :    0.117554
   9 H :    0.126915
  10 H :    0.113577
  11 H :    0.117843
  12 H :    0.119940
  13 H :    0.141639
  14 H :    0.130839
  15 H :    0.118999
  16 H :    0.116757
  17 H :    0.124170
  18 H :    0.129862
  19 H :    0.130104

  Mayer bond orders larger than 0.100000
B(  0-C ,  1-C ) :   1.1480 B(  0-C ,  8-H ) :   0.9502 B(  0-C ,  9-H ) :   0.9422
B(  0-C , 10-H ) :   0.9537 B(  1-C ,  2-C ) :   1.0981 B(  1-C , 11-H ) :   0.9290
B(  1-C , 12-H ) :   0.9324 B(  2-C ,  3-C ) :   1.0249 B(  2-C , 13-H ) :   0.8931
B(  2-C , 14-H ) :   0.9082 B(  3-C ,  4-O ) :   2.0219 B(  3-C ,  5-O ) :   1.2185
B(  5-O ,  6-C ) :   0.9234 B(  6-C ,  7-C ) :   1.1724 B(  6-C , 15-H ) :   0.9130
B(  6-C , 16-H ) :   0.9372 B(  7-C , 17-H ) :   0.9494 B(  7-C , 18-H ) :   0.9469
B(  7-C , 19-H ) :   0.9447

Dispersion correction           -0.015065691
FINAL SINGLE POINT ENERGY      -385.457500124938

DIPOLE MOMENT
-------------

Method             : SCF
Type of density    : Electron Density
Multiplicity       :   1
Irrep              :   0
Energy             :  -385.5329385303797380 Eh
Relativity type    :
Basis              : AO
                                X                 Y                 Z
Electronic contribution:      2.605956476       1.880906885       0.121445094
Nuclear contribution   :     -2.251436462      -1.756017937       0.451481916
                        -----------------------------------------
Total Dipole Moment    :      0.354520014       0.124888948       0.572927011
                        -----------------------------------------
Magnitude (a.u.)       :      0.685220438
Magnitude (Debye)      :      1.741691939

Rotational constants in cm-1:             0.180664             0.032219             0.029880
Rotational constants in MHz :          5416.183130           965.904332           895.788919

                             ****ORCA TERMINATED NORMALLY****
TOTAL RUN TIME: 0 days 0 hours 0 minutes 12 seconds 290 msec
