                         Program Version 6.0.0  -   RELEASE  -
|  1> ! pbe def2-sv(p) def2/J RI DEFGRID1 loosescf d4 GCP(DFT/SV(P)) printgap
|  2> %output
|  3>     printlevel normal
|  4> end
|  5> * xyz 0 1
|  6> C -3.6309537698 -0.5013299256 0.3573485786
|  7> C -2.2637197491 -0.4717423516 -0.3130420062
|  8> C -1.2139267919 0.1864980754 0.5918884375
|  9> C 0.102341813 0.2777181512 -0.1332369825
| 10> O 0.3001460802 0.9529931583 -1.122262255
| 11> O 1.0213226384 -0.5028293453 0.4202926061
| 12> C 2.3350791327 -0.5389658685 -0.1634840119
| 13> C 3.2097731552 0.5780621152 0.3846225188
| 14> H -4.3561209833 -0.9820657684 -0.2932270816
| 15> H -3.5842989416 -1.0547156324 1.2916303962
| 16> H -3.9735936289 0.5080064447 0.5698514033
| 17> H -2.317338123 0.0870610488 -1.2495265034
| 18> H -1.9463851681 -1.4898093523 -0.5477256373
| 19> H -1.0765619227 -0.3904146772 1.5052218592
| 20> H -1.5391433968 1.1982466889 0.8380650825
| 21> H 2.7278662581 -1.5198123132 0.1057147993
| 22> H 2.2358496048 -0.4526232124 -1.2497740712
| 23> H 2.8018300992 1.5447622682 0.0977923041
| 24> H 3.2552234682 0.5201362914 1.4687127822
| 25> H 4.2110529022 0.4833902271 -0.0226270614
| 26> *
| 27>
| 28>                          ****END OF INPUT****

CARTESIAN COORDINATES (ANGSTROEM)
---------------------------------
  C     -3.630954   -0.501330    0.357349
  C     -2.263720   -0.471742   -0.313042
  C     -1.213927    0.186498    0.591888
  C      0.102342    0.277718   -0.133237
  O      0.300146    0.952993   -1.122262
  O      1.021323   -0.502829    0.420293
  C      2.335079   -0.538966   -0.163484
  C      3.209773    0.578062    0.384623
  H     -4.356121   -0.982066   -0.293227
  H     -3.584299   -1.054716    1.291630
  H     -3.973594    0.508006    0.569851
  H     -2.317338    0.087061   -1.249527
  H     -1.946385   -1.489809   -0.547726
  H     -1.076562   -0.390415    1.505222
  H     -1.539143    1.198247    0.838065
  H      2.727866   -1.519812    0.105715
  H      2.235850   -0.452623   -1.249774
  H      2.801830    1.544762    0.097792
  H      3.255223    0.520136    1.468713
  H      4.211053    0.483390   -0.022627

 Total Charge           Charge          ....    0
 Multiplicity           Mult            ....    1
 Number of Electrons    NEL             ....   64
 Basis Dimension        Dim             ....  136

ORBITAL ENERGIES
----------------

  NO   OCC          E(Eh)            E(eV)
   0   2.0000     -18.796712      -511.4845
   1   2.0000     -18.729634      -509.6592
   2   2.0000     -10.003251      -272.2023
   3   2.0000      -9.945460      -270.6297
   4   2.0000      -9.895439      -269.2686
   5   2.0000      -9.893099      -269.2049
   6   2.0000      -9.886135      -269.0154
   7   2.0000      -9.879153      -268.8254
   8   2.0000      -1.002922       -27.2909
   9   2.0000      -0.906900       -24.6780
  10   2.0000      -0.727296       -19.7907
  11   2.0000      -0.696822       -18.9615
  12   2.0000      -0.638976       -17.3874
  13   2.0000      -0.588383       -16.0107
  14   2.0000      -0.531969       -14.4756
  15   2.0000      -0.495404       -13.4806
  16   2.0000      -0.451995       -12.2994
  17   2.0000      -0.432596       -11.7715
  18   2.0000      -0.414318       -11.2742
  19   2.0000      -0.408617       -11.1190
  20   2.0000      -0.389849       -10.6083
  21   2.0000      -0.372818       -10.1449
  22   2.0000      -0.362179        -9.8554
  23   2.0000      -0.345437        -9.3998
  24   2.0000      -0.341517        -9.2931
  25   2.0000      -0.324876        -8.8403
  26   2.0000      -0.313693        -8.5360
  27   2.0000      -0.300963        -8.1896
  28   2.0000      -0.295298        -8.0355
  29   2.0000      -0.286573        -7.7981
  30   2.0000      -0.253968        -6.9108
  31   2.0000      -0.215853        -5.8736
  32   0.0000      -0.018639        -0.5072
  33   0.0000       0.042091         1.1454
  34   0.0000       0.052506         1.4288
  35   0.0000       0.077886         2.1194
  36   0.0000       0.082257         2.2383

MULLIKEN ATOMIC CHARGES
-----------------------
   0 C :   -0.246018
   1 C :   -0.234849
   2 C :   -0.127450
   3 C :    0.115934
   4 O :   -0.216473
   5 O :   -0.235565
   6 C :   -0.012725
   7 C :   -0.303961
   8 H :    0.106922
   9 H :    0.098170
  10 H :    0.099707
  11 H :    0.109051
  12 H :    0.094835
  13 H :    0.090960
  14 H :    0.103723
  15 H :    0.100463
  16 H :    0.106671
  17 H :    0.126700
  18 H :    0.112423
  19 H :    0.111480
Sum of atomic charges:    0.0000000

LOEWDIN ATOMIC CHARGES
----------------------
   0 C :   -0.339369
   1 C :   -0.225347
   2 C :   -0.244482
   3 C :    0.038099
   4 O :   -0.176016
   5 O :   -0.066916
   6 C :   -0.113678
   7 C :   -0.355998
   8 H :    0.121830
   9 H :    0.117600
  10 H :    0.118729
  11 H :    0.123790
  12 H :    0.118424
  13 H :    0.126531
  14 H :    0.137172
  15 H :    0.116452
  16 H :    0.118873
  17 H :    0.130480
  18 H :    0.123965
  19 H :    0.129861

  Mayer bond orders larger than 0.100000
B(  0-C ,  1-C ) :   1.1586 B(  0-C ,  8-H ) :   0.9522 B(  0-C ,  9-H ) :   0.9526
B(  0-C , 10-H ) :   0.9539 B(  1-C ,  2-C ) :   1.1273 B(  1-C , 11-H ) :   0.9232
B(  1-C , 12-H ) :   0.9293 B(  2-C ,  3-C ) :   1.0224 B(  2-C , 13-H ) :   0.9065
B(  2-C , 14-H ) :   0.8960 B(  3-C ,  4-O ) :   2.0325 B(  3-C ,  5-O ) :   1.2219
B(  5-O ,  6-C ) :   0.9227 B(  6-C ,  7-C ) :   1.1727 B(  6-C , 15-H ) :   0.9373
B(  6-C , 16-H ) :   0.9135 B(  7-C , 17-H ) :   0.9464 B(  7-C , 18-H ) :   0.9491
B(  7-C , 19-H ) :   0.9446

Dispersion correction           -0.014647985
FINAL SINGLE POINT ENERGY      -385.457959255277

DIPOLE MOMENT
-------------

Method             : SCF
Type of density    : Electron Density
Multiplicity       :   1
Irrep              :   0
Energy             :  -385.5329818117949117 Eh
Relativity type    :
Basis              : AO
                                X                 Y                 Z
Electronic contribution:      3.493923851       1.009838128      -1.870747850
Nuclear contribution   :     -3.321798161      -1.445454950       2.348243735
                        -----------------------------------------
Total Dipole Moment    :      0.172125690      -0.435616822       0.477495885
                        -----------------------------------------
Magnitude (a.u.)       :      0.668873373
Magnitude (Debye)      :      1.700141001

Rotational constants in cm-1:             0.202004             0.028726             0.027416
Rotational constants in MHz :          6055.929452           861.193869           821.916075

                             ****ORCA TERMINATED NORMALLY****
TOTAL RUN TIME: 0 days 0 hours 0 minutes 10 seconds 437 msec
