                         Program Version 6.0.0  -   RELEASE  -
|  1> ! r2scan-3c def2/J RI DEFGRID2 scfconv6 printgap
|  2> %output
|  3>     printlevel normal
|  4> end
|  5> * xyz 0 1
|  6> C -3.8747151505 -0.3838968724 -0.3128134768
|  7> C -2.6978438825 0.0715831916 0.5414793711
|  8> C -1.3699554012 -0.1283424547 -0.1844476682
|  9> C -0.1807665452 0.301399388 0.6770274758
| 10> C 1.1088723678 0.2401514358 -0.0986064677
| 11> O 1.2501166956 0.6145074136 -1.2440086791
| 12> O 2.0880128958 -0.2783597518 0.6335052125
| 13> C 3.3973936342 -0.3940278818 0.0658262354
| 14> H -4.8118285158 -0.2297288881 0.2155967889
| 15> H -3.907494962 0.1764497286 -1.2442532449
| 16> H -3.7846047167 -1.4405812996 -0.5533961387
| 17> H -2.8177407711 1.1275492664 0.7908144708
| 18> H -2.6865796851 -0.4934744227 1.4754372735
| 19> H -1.3595986937 0.4524975884 -1.1090859947
| 20> H -1.2574510301 -1.1803387482 -0.4550961043
| 21> H -0.0845494519 -0.3194899849 1.5669628846
| 22> H -0.3198441182 1.3393197282 0.9892204443
| 23> H 3.7414614509 -1.4071503883 0.2600576092
| 24> H 4.0477226757 0.3287530831 0.5563163858
| 25> H 3.3545035598 -0.1965858148 -1.0057895668
| 26> *
| 27>
| 28>                          ****END OF INPUT****

CARTESIAN COORDINATES (ANGSTROEM)
---------------------------------
  C     -3.874715   -0.383897   -0.312813
  C     -2.697844    0.071583    0.541479
  C     -1.369955   -0.128342   -0.184448
  C     -0.180767    0.301399    0.677027
  C      1.108872    0.240151   -0.098606
  O      1.250117    0.614507   -1.244009
  O      2.088013   -0.278360    0.633505
  C      3.397394   -0.394028    0.065826
  H     -4.811829   -0.229729    0.215597
  H     -3.907495    0.176450   -1.244253
  H     -3.784605   -1.440581   -0.553396
  H     -2.817741    1.127549    0.790814
  H     -2.686580   -0.493474    1.475437
  H     -1.359599    0.452498   -1.109086
  H     -1.257451   -1.180339   -0.455096
  H     -0.084549   -0.319490    1.566963
  H     -0.319844    1.339320    0.989220
  H      3.741461   -1.407150    0.260058
  H      4.047723    0.328753    0.556316
  H      3.354504   -0.196586   -1.005790

 Total Charge           Charge          ....    0
 Multiplicity           Mult            ....    1
 Number of Electrons    NEL             ....   64
 Basis Dimension        Dim             ....  222

ORBITAL ENERGIES
----------------

  NO   OCC          E(Eh)            E(eV)
   0   2.0000     -18.999299      -516.9972
   1   2.0000     -18.928373      -515.0672
   2   2.0000     -10.153059      -276.2788
   3   2.0000     -10.084721      -274.4192
   4   2.0000     -10.041716      -273.2490
   5   2.0000     -10.030181      -272.9351
   6   2.0000     -10.028321      -272.8845
   7   2.0000     -10.017273      -272.5839
   8   2.0000      -1.072220       -29.1766
   9   2.0000      -0.976461       -26.5709
  10   2.0000      -0.776699       -21.1351
  11   2.0000      -0.729088       -19.8395
  12   2.0000      -0.686784       -18.6883
  13   2.0000      -0.615189       -16.7401
  14   2.0000      -0.553039       -15.0490
  15   2.0000      -0.529792       -14.4164
  16   2.0000      -0.466717       -12.7000
  17   2.0000      -0.460589       -12.5333
  18   2.0000      -0.445961       -12.1352
  19   2.0000      -0.435632       -11.8542
  20   2.0000      -0.405356       -11.0303
  21   2.0000      -0.392471       -10.6797
  22   2.0000      -0.386151       -10.5077
  23   2.0000      -0.364991        -9.9319
  24   2.0000      -0.348019        -9.4701
  25   2.0000      -0.325473        -8.8566
  26   2.0000      -0.319637        -8.6978
  27   2.0000      -0.308746        -8.4014
  28   2.0000      -0.299354        -8.1458
  29   2.0000      -0.298083        -8.1112
  30   2.0000      -0.272157        -7.4058
  31   2.0000      -0.238245        -6.4830
  32   0.0000      -0.013816        -0.3760
  33   0.0000       0.069379         1.8879
  34   0.0000       0.096540         2.6270
  35   0.0000       0.100594         2.7373
  36   0.0000       0.120173         3.2701

MULLIKEN ATOMIC CHARGES
-----------------------
   0 C :   -0.466929
   1 C :   -0.228022
   2 C :   -0.282451
   3 C :   -0.325376
   4 C :    0.406996
   5 O :   -0.438601
   6 O :   -0.194769
   7 C :   -0.305054
   8 H :    0.147445
   9 H :    0.144484
  10 H :    0.142089
  11 H :    0.137493
  12 H :    0.134226
  13 H :    0.170985
  14 H :    0.138112
  15 H :    0.165611
  16 H :    0.169147
  17 H :    0.147656
  18 H :    0.148396
  19 H :    0.188561
Sum of atomic charges:    0.0000000

LOEWDIN ATOMIC CHARGES
----------------------
   0 C :   -0.422856
   1 C :   -0.314363
   2 C :   -0.286033
   3 C :   -0.227385
   4 C :    0.360845
   5 O :   -0.443910
   6 O :   -0.603014
   7 C :   -0.046836
   8 H :    0.150474
   9 H :    0.151347
  10 H :    0.150142
  11 H :    0.151445
  12 H :    0.150968
  13 H :    0.170800
  14 H :    0.158248
  15 H :    0.178494
  16 H :    0.182219
  17 H :    0.174020
  18 H :    0.172693
  19 H :    0.192702

  Mayer bond orders larger than 0.100000
B(  0-C ,  1-C ) :   0.9029 B(  0-C ,  8-H ) :   0.9755 B(  0-C ,  9-H ) :   0.9827
B(  0-C , 10-H ) :   0.9820 B(  1-C ,  2-C ) :   0.9134 B(  1-C , 11-H ) :   0.9805
B(  1-C , 12-H ) :   0.9655 B(  2-C ,  3-C ) :   0.9191 B(  2-C , 13-H ) :   0.9708
B(  2-C , 14-H ) :   0.9650 B(  3-C ,  4-C ) :   0.9882 B(  3-C , 15-H ) :   0.9736
B(  3-C , 16-H ) :   0.9537 B(  4-C ,  5-O ) :   1.8297 B(  4-C ,  6-O ) :   1.0621
B(  6-O ,  7-C ) :   0.8399 B(  7-C , 17-H ) :   0.9673 B(  7-C , 18-H ) :   0.9617
B(  7-C , 19-H ) :   0.9681

Dispersion correction           -0.004857988
FINAL SINGLE POINT ENERGY      -386.229644846462

DIPOLE MOMENT
-------------

Method             : SCF
Type of density    : Electron Density
Multiplicity       :   1
Irrep              :   0
Energy             :  -386.2368606199431156 Eh
Relativity type    :
Basis              : AO
                                X                 Y                 Z
Electronic contribution:      9.344039781       1.434758636      -0.727938694
Nuclear contribution   :     -9.225221637      -1.723850518       1.385799348
                        -----------------------------------------
Total Dipole Moment    :      0.118818145      -0.289091882       0.657860654
                        -----------------------------------------
Magnitude (a.u.)       :      0.728335436
Magnitude (Debye)      :      1.851281554

Rotational constants in cm-1:             0.224023             0.025066             0.023792
Rotational constants in MHz :          6716.041954           751.474490           713.254203

                             ****ORCA TERMINATED NORMALLY****
TOTAL RUN TIME: 0 days 0 hours 0 minutes 25 seconds 190 msec
