                         Program Version 6.0.0  -   RELEASE  -
|  1> ! r2scan-3c def2/J RI DEFGRID2 scfconv6 printgap
|  2> %output
|  3>     printlevel normal
|  4> end
|  5> %cpcm
|  6>     smd true
|  7>     smdsolvent "water"
|  8> end
|  9> * xyz 0 1
| 10> C -3.8747151505 -0.3838968724 -0.3128134768
| 11> C -2.6978438825 0.0715831916 0.5414793711
| 12> C -1.3699554012 -0.1283424547 -0.1844476682
| 13> C -0.1807665452 0.301399388 0.6770274758
| 14> C 1.1088723678 0.2401514358 -0.0986064677
| 15> O 1.2501166956 0.6145074136 -1.2440086791
| 16> O 2.0880128958 -0.2783597518 0.6335052125
| 17> C 3.3973936342 -0.3940278818 0.0658262354
| 18> H -4.8118285158 -0.2297288881 0.2155967889
| 19> H -3.907494962 0.1764497286 -1.2442532449
| 20> H -3.7846047167 -1.4405812996 -0.5533961387
| 21> H -2.8177407711 1.1275492664 0.7908144708
| 22> H -2.6865796851 -0.4934744227 1.4754372735
| 23> H -1.3595986937 0.4524975884 -1.1090859947
| 24> H -1.2574510301 -1.1803387482 -0.4550961043
| 25> H -0.0845494519 -0.3194899849 1.5669628846
| 26> H -0.3198441182 1.3393197282 0.9892204443
| 27> H 3.7414614509 -1.4071503883 0.2600576092
| 28> H 4.0477226757 0.3287530831 0.5563163858
| 29> H 3.3545035598 -0.1965858148 -1.0057895668
| 30> *
| 31>
| 32>                          ****END OF INPUT****

CARTESIAN COORDINATES (ANGSTROEM)
---------------------------------
  C     -3.874715   -0.383897   -0.312813
  C     -2.697844    0.071583    0.541479
  C     -1.369955   -0.128342   -0.184448
  C     -0.180767    0.301399    0.677027
  C      1.108872    0.240151   -0.098606
  O      1.250117    0.614507   -1.244009
  O      2.088013   -0.278360    0.633505
  C      3.397394   -0.394028    0.065826
  H     -4.811829   -0.229729    0.215597
  H     -3.907495    0.176450   -1.244253
  H     -3.784605   -1.440581   -0.553396
  H     -2.817741    1.127549    0.790814
  H     -2.686580   -0.493474    1.475437
  H     -1.359599    0.452498   -1.109086
  H     -1.257451   -1.180339   -0.455096
  H     -0.084549   -0.319490    1.566963
  H     -0.319844    1.339320    0.989220
  H      3.741461   -1.407150    0.260058
  H      4.047723    0.328753    0.556316
  H      3.354504   -0.196586   -1.005790

 Total Charge           Charge          ....    0
 Multiplicity           Mult            ....    1
 Number of Electrons    NEL             ....   64
 Basis Dimension        Dim             ....  222

ORBITAL ENERGIES
----------------

  NO   OCC          E(Eh)            E(eV)
   0   2.0000     -19.004449      -517.1374
   1   2.0000     -18.942997      -515.4651
   2   2.0000     -10.162680      -276.5406
   3   2.0000     -10.074679      -274.1460
   4   2.0000     -10.035281      -273.0739
   5   2.0000     -10.023877      -272.7636
   6   2.0000     -10.018586      -272.6196
   7   2.0000     -10.008379      -272.3418
   8   2.0000      -1.078698       -29.3529
   9   2.0000      -0.989164       -26.9165
  10   2.0000      -0.770408       -20.9639
  11   2.0000      -0.723788       -19.6953
  12   2.0000      -0.680268       -18.5110
  13   2.0000      -0.608268       -16.5518
  14   2.0000      -0.545543       -14.8450
  15   2.0000      -0.527807       -14.3624
  16   2.0000      -0.468266       -12.7422
  17   2.0000      -0.459755       -12.5106
  18   2.0000      -0.450897       -12.2695
  19   2.0000      -0.433328       -11.7915
  20   2.0000      -0.398489       -10.8434
  21   2.0000      -0.390116       -10.6156
  22   2.0000      -0.379879       -10.3370
  23   2.0000      -0.362225        -9.8566
  24   2.0000      -0.343456        -9.3459
  25   2.0000      -0.323106        -8.7922
  26   2.0000      -0.315920        -8.5966
  27   2.0000      -0.301234        -8.1970
  28   2.0000      -0.294356        -8.0098
  29   2.0000      -0.289208        -7.8698
  30   2.0000      -0.279043        -7.5932
  31   2.0000      -0.253214        -6.8903
  32   0.0000      -0.020937        -0.5697
  33   0.0000       0.074164         2.0181
  34   0.0000       0.103847         2.8258
  35   0.0000       0.110054         2.9947
  36   0.0000       0.130414         3.5487

MULLIKEN ATOMIC CHARGES
-----------------------
   0 C :   -0.511024
   1 C :   -0.242844
   2 C :   -0.288775
   3 C :   -0.344351
   4 C :    0.444949
   5 O :   -0.521017
   6 O :   -0.213026
   7 C :   -0.319643
   8 H :    0.157969
   9 H :    0.153825
  10 H :    0.154286
  11 H :    0.150349
  12 H :    0.147516
  13 H :    0.160111
  14 H :    0.156792
  15 H :    0.180479
  16 H :    0.199746
  17 H :    0.174479
  18 H :    0.176074
  19 H :    0.184107
Sum of atomic charges:    0.0000000

LOEWDIN ATOMIC CHARGES
----------------------
   0 C :   -0.431627
   1 C :   -0.313472
   2 C :   -0.287487
   3 C :   -0.224777
   4 C :    0.370952
   5 O :   -0.504031
   6 O :   -0.605702
   7 C :   -0.041453
   8 H :    0.153117
   9 H :    0.152819
  10 H :    0.152772
  11 H :    0.155156
  12 H :    0.155303
  13 H :    0.165737
  14 H :    0.162774
  15 H :    0.185934
  16 H :    0.193266
  17 H :    0.185528
  18 H :    0.183692
  19 H :    0.191497

  Mayer bond orders larger than 0.100000
B(  0-C ,  1-C ) :   0.8888 B(  0-C ,  8-H ) :   0.9725 B(  0-C ,  9-H ) :   0.9814
B(  0-C , 10-H ) :   0.9800 B(  1-C ,  2-C ) :   0.9157 B(  1-C , 11-H ) :   0.9801
B(  1-C , 12-H ) :   0.9655 B(  2-C ,  3-C ) :   0.9077 B(  2-C , 13-H ) :   0.9725
B(  2-C , 14-H ) :   0.9623 B(  3-C ,  4-C ) :   0.9901 B(  3-C , 15-H ) :   0.9650
B(  3-C , 16-H ) :   0.9430 B(  4-C ,  5-O ) :   1.7695 B(  4-C ,  6-O ) :   1.0865
B(  6-O ,  7-C ) :   0.8271 B(  7-C , 17-H ) :   0.9577 B(  7-C , 18-H ) :   0.9528
B(  7-C , 19-H ) :   0.9644

Dispersion correction           -0.004857988
FINAL SINGLE POINT ENERGY      -386.233618670406

DIPOLE MOMENT
-------------

Method             : SCF
Type of density    : Electron Density
Multiplicity       :   1
Irrep              :   0
Energy             :  -386.2408344438872518 Eh
Relativity type    :
Basis              : AO
                                X                 Y                 Z
Electronic contribution:      9.397472197       1.320263541      -0.381774558
Nuclear contribution   :     -9.225221637      -1.723850518       1.385799348
                        -----------------------------------------
Total Dipole Moment    :      0.172250560      -0.403586977       1.004024789
                        -----------------------------------------
Magnitude (a.u.)       :      1.095727375
Magnitude (Debye)      :      2.785117651

Rotational constants in cm-1:             0.224023             0.025066             0.023792
Rotational constants in MHz :          6716.041954           751.474490           713.254203

                             ****ORCA TERMINATED NORMALLY****
TOTAL RUN TIME: 0 days 0 hours 0 minutes 32 seconds 792 msec
