                         Program Version 6.0.0  -   RELEASE  -
|  1> ! pbe def2-sv(p) def2/J RI DEFGRID1 loosescf d4 GCP(DFT/SV(P)) printgap
|  2> %output
|  3>     printlevel normal
|  4> end
|  5> * xyz 0 1
|  6> C -3.1245560945 -1.1240076556 0.0292508066
|  7> C -1.9381785022 -0.2774012735 0.4747014306
|  8> C -1.3552165055 0.5274669534 -0.685101421
|  9> C -0.1647479343 1.3882379792 -0.2460271757
| 10> C 0.9792153015 0.5332713382 0.2347416579
| 11> O 1.434271109 0.5543617816 1.3603078565
| 12> O 1.435391631 -0.2548350031 -0.730024019
| 13> C 2.5165657318 -1.1481189672 -0.4495672385
| 14> H -3.9131061058 -0.49053089 -0.3695244113
| 15> H -2.8224612623 -1.8252039696 -0.7450495925
| 16> H -3.5260747952 -1.6880668658 0.8670167333
| 17> H -2.2535224186 0.4061908421 1.2659304389
| 18> H -1.1632300027 -0.9240969571 0.8948105103
| 19> H -2.1266414456 1.1820233755 -1.0928987343
| 20> H -1.0305561301 -0.1511308634 -1.4754610998
| 21> H -0.4516071324 2.0565916734 0.5657222937
| 22> H 0.1887094556 1.9755307049 -1.0940976124
| 23> H 2.1933635093 -2.1497978033 -0.7255355157
| 24> H 2.769768293 -1.102834301 0.610259286
| 25> H 3.3687046902 -0.8451023374 -1.0556498508
| 26> *
| 27>
| 28>                          ****END OF INPUT****

CARTESIAN COORDINATES (ANGSTROEM)
---------------------------------
  C     -3.124556   -1.124008    0.029251
  C     -1.938179   -0.277401    0.474701
  C     -1.355217    0.527467   -0.685101
  C     -0.164748    1.388238   -0.246027
  C      0.979215    0.533271    0.234742
  O      1.434271    0.554362    1.360308
  O      1.435392   -0.254835   -0.730024
  C      2.516566   -1.148119   -0.449567
  H     -3.913106   -0.490531   -0.369524
  H     -2.822461   -1.825204   -0.745050
  H     -3.526075   -1.688067    0.867017
  H     -2.253522    0.406191    1.265930
  H     -1.163230   -0.924097    0.894811
  H     -2.126641    1.182023   -1.092899
  H     -1.030556   -0.151131   -1.475461
  H     -0.451607    2.056592    0.565722
  H      0.188709    1.975531   -1.094098
  H      2.193364   -2.149798   -0.725536
  H      2.769768   -1.102834    0.610259
  H      3.368705   -0.845102   -1.055650

 Total Charge           Charge          ....    0
 Multiplicity           Mult            ....    1
 Number of Electrons    NEL             ....   64
 Basis Dimension        Dim             ....  136

ORBITAL ENERGIES
----------------

  NO   OCC          E(Eh)            E(eV)
   0   2.0000     -18.799525      -511.5611
   1   2.0000     -18.730056      -509.6707
   2   2.0000     -10.004991      -272.2496
   3   2.0000      -9.940410      -270.4923
   4   2.0000      -9.896540      -269.2985
   5   2.0000      -9.891785      -269.1692
   6   2.0000      -9.885768      -269.0054
   7   2.0000      -9.876164      -268.7441
   8   2.0000      -1.004752       -27.3407
   9   2.0000      -0.907370       -24.6908
  10   2.0000      -0.733517       -19.9600
  11   2.0000      -0.685158       -18.6441
  12   2.0000      -0.645733       -17.5713
  13   2.0000      -0.578731       -15.7481
  14   2.0000      -0.525003       -14.2861
  15   2.0000      -0.506048       -13.7703
  16   2.0000      -0.451185       -12.2774
  17   2.0000      -0.435715       -11.8564
  18   2.0000      -0.415380       -11.3031
  19   2.0000      -0.411051       -11.1853
  20   2.0000      -0.392355       -10.6765
  21   2.0000      -0.378469       -10.2987
  22   2.0000      -0.367459        -9.9991
  23   2.0000      -0.345319        -9.3966
  24   2.0000      -0.338925        -9.2226
  25   2.0000      -0.321499        -8.7484
  26   2.0000      -0.303752        -8.2655
  27   2.0000      -0.294425        -8.0117
  28   2.0000      -0.289778        -7.8853
  29   2.0000      -0.285878        -7.7791
  30   2.0000      -0.254829        -6.9343
  31   2.0000      -0.215282        -5.8581
  32   0.0000      -0.018087        -0.4922
  33   0.0000       0.037278         1.0144
  34   0.0000       0.055770         1.5176
  35   0.0000       0.062313         1.6956
  36   0.0000       0.076976         2.0946

MULLIKEN ATOMIC CHARGES
-----------------------
   0 C :   -0.256185
   1 C :   -0.209216
   2 C :   -0.210469
   3 C :   -0.079254
   4 C :    0.075531
   5 O :   -0.198587
   6 O :   -0.246870
   7 C :   -0.129833
   8 H :    0.097053
   9 H :    0.096660
  10 H :    0.104686
  11 H :    0.088624
  12 H :    0.104794
  13 H :    0.088710
  14 H :    0.097060
  15 H :    0.095124
  16 H :    0.105992
  17 H :    0.120619
  18 H :    0.133490
  19 H :    0.122068
Sum of atomic charges:   -0.0000000

LOEWDIN ATOMIC CHARGES
----------------------
   0 C :   -0.338892
   1 C :   -0.236284
   2 C :   -0.222856
   3 C :   -0.240104
   4 C :    0.032694
   5 O :   -0.168826
   6 O :   -0.075519
   7 C :   -0.209266
   8 H :    0.116816
   9 H :    0.117003
  10 H :    0.120055
  11 H :    0.117442
  12 H :    0.117776
  13 H :    0.117480
  14 H :    0.118641
  15 H :    0.132400
  16 H :    0.137604
  17 H :    0.119479
  18 H :    0.124268
  19 H :    0.120087

  Mayer bond orders larger than 0.100000
B(  0-C ,  1-C ) :   1.1550 B(  0-C ,  8-H ) :   0.9544 B(  0-C ,  9-H ) :   0.9547
B(  0-C , 10-H ) :   0.9534 B(  1-C ,  2-C ) :   1.1304 B(  1-C , 11-H ) :   0.9252
B(  1-C , 12-H ) :   0.9195 B(  2-C ,  3-C ) :   1.1104 B(  2-C , 13-H ) :   0.9217
B(  2-C , 14-H ) :   0.9189 B(  3-C ,  4-C ) :   1.0221 B(  3-C , 15-H ) :   0.9078
B(  3-C , 16-H ) :   0.8951 B(  4-C ,  5-O ) :   2.0795 B(  4-C ,  6-O ) :   1.1885
B(  6-O ,  7-C ) :   0.9384 B(  7-C , 17-H ) :   0.9604 B(  7-C , 18-H ) :   0.9279
B(  7-C , 19-H ) :   0.9613

Dispersion correction           -0.015222122
FINAL SINGLE POINT ENERGY      -385.451524410908

DIPOLE MOMENT
-------------

Method             : SCF
Type of density    : Electron Density
Multiplicity       :   1
Irrep              :   0
Energy             :  -385.5266688339800680 Eh
Relativity type    :
Basis              : AO
                                X                 Y                 Z
Electronic contribution:      8.096927480       3.030496549       1.509018742
Nuclear contribution   :     -8.182030390      -3.332080313      -2.199546481
                        -----------------------------------------
Total Dipole Moment    :     -0.085102910      -0.301583764      -0.690527739
                        -----------------------------------------
Magnitude (a.u.)       :      0.758303258
Magnitude (Debye)      :      1.927453704

Rotational constants in cm-1:             0.110963             0.035994             0.033299
Rotational constants in MHz :          3326.590067          1079.060000           998.281381

                             ****ORCA TERMINATED NORMALLY****
TOTAL RUN TIME: 0 days 0 hours 0 minutes 10 seconds 721 msec
