                         Program Version 6.0.0  -   RELEASE  -
|  1> ! r2scan-3c def2/J RI DEFGRID2 scfconv6 printgap
|  2> %output
|  3>     printlevel normal
|  4> end
|  5> * xyz 0 1
|  6> C 0.5597170346 -2.3238400231 -0.2418396211
|  7> O 1.0701615242 -1.0493635059 0.1440325778
|  8> C 0.2472140806 0.0142956072 -0.1695729006
|  9> O 0.9761824321 1.1277722229 0.1987119238
| 10> C 0.3551289348 2.3715338771 -0.1194516228
| 11> O -0.9667317274 -0.0561759721 0.5214085933
| 12> C -2.152984751 -0.0821650949 -0.2696946317
| 13> H 1.3422164322 -3.0297598079 0.0185608826
| 14> H 0.369904072 -2.3460070807 -1.3192603368
| 15> H -0.35519597 -2.5543090195 0.3078559798
| 16> H 0.0339714712 0.0326626948 -1.2678398546
| 17> H 0.1567429549 2.4325653449 -1.1938151333
| 18> H 1.0757045048 3.1280668401 0.1752693831
| 19> H -0.5723701777 2.4935495911 0.4437345315
| 20> H -2.1694533112 -0.9579983602 -0.9224748962
| 21> H -2.2448040652 0.8268975885 -0.8685352326
| 22> H -2.9657677132 -0.1381601433 0.4490867128
| 23> *
| 24>
| 25>                          ****END OF INPUT****

CARTESIAN COORDINATES (ANGSTROEM)
---------------------------------
  C      0.559717   -2.323840   -0.241840
  O      1.070162   -1.049364    0.144033
  C      0.247214    0.014296   -0.169573
  O      0.976182    1.127772    0.198712
  C      0.355129    2.371534   -0.119452
  O     -0.966732   -0.056176    0.521409
  C     -2.152985   -0.082165   -0.269695
  H      1.342216   -3.029760    0.018561
  H      0.369904   -2.346007   -1.319260
  H     -0.355196   -2.554309    0.307856
  H      0.033971    0.032663   -1.267840
  H      0.156743    2.432565   -1.193815
  H      1.075705    3.128067    0.175269
  H     -0.572370    2.493550    0.443735
  H     -2.169453   -0.957998   -0.922475
  H     -2.244804    0.826898   -0.868535
  H     -2.965768   -0.138160    0.449087

 Total Charge           Charge          ....    0
 Multiplicity           Mult            ....    1
 Number of Electrons    NEL             ....   58
 Basis Dimension        Dim             ....  198

ORBITAL ENERGIES
----------------

  NO   OCC          E(Eh)            E(eV)
   0   2.0000     -18.961510      -515.9689
   1   2.0000     -18.959141      -515.9044
   2   2.0000     -18.959134      -515.9043
   3   2.0000     -10.175157      -276.8801
   4   2.0000     -10.084528      -274.4140
   5   2.0000     -10.076260      -274.1890
   6   2.0000     -10.076202      -274.1874
   7   2.0000      -1.066567       -29.0228
   8   2.0000      -0.981122       -26.6977
   9   2.0000      -0.980829       -26.6897
  10   2.0000      -0.713888       -19.4259
  11   2.0000      -0.664478       -18.0814
  12   2.0000      -0.643393       -17.5076
  13   2.0000      -0.574304       -15.6276
  14   2.0000      -0.494145       -13.4464
  15   2.0000      -0.489036       -13.3073
  16   2.0000      -0.484579       -13.1861
  17   2.0000      -0.421999       -11.4832
  18   2.0000      -0.413380       -11.2486
  19   2.0000      -0.404861       -11.0168
  20   2.0000      -0.401895       -10.9361
  21   2.0000      -0.385687       -10.4951
  22   2.0000      -0.378629       -10.3030
  23   2.0000      -0.318950        -8.6791
  24   2.0000      -0.308775        -8.4022
  25   2.0000      -0.294501        -8.0138
  26   2.0000      -0.256514        -6.9801
  27   2.0000      -0.239793        -6.5251
  28   2.0000      -0.230055        -6.2601
  29   0.0000       0.061069         1.6618
  30   0.0000       0.076693         2.0869
  31   0.0000       0.089819         2.4441
  32   0.0000       0.095989         2.6120
  33   0.0000       0.113932         3.1002

MULLIKEN ATOMIC CHARGES
-----------------------
   0 C :   -0.307960
   1 O :   -0.199548
   2 C :    0.075821
   3 O :   -0.199503
   4 C :   -0.307841
   5 O :   -0.215924
   6 C :   -0.305485
   7 H :    0.155014
   8 H :    0.135378
   9 H :    0.163010
  10 H :    0.108133
  11 H :    0.135357
  12 H :    0.154997
  13 H :    0.163030
  14 H :    0.143822
  15 H :    0.143815
  16 H :    0.157883
Sum of atomic charges:   -0.0000000

LOEWDIN ATOMIC CHARGES
----------------------
   0 C :   -0.061703
   1 O :   -0.622929
   2 C :    0.420558
   3 O :   -0.623050
   4 C :   -0.061685
   5 O :   -0.662552
   6 C :   -0.073934
   7 H :    0.179727
   8 H :    0.157991
   9 H :    0.166784
  10 H :    0.179786
  11 H :    0.157986
  12 H :    0.179724
  13 H :    0.166784
  14 H :    0.158226
  15 H :    0.158199
  16 H :    0.180086

  Mayer bond orders larger than 0.100000
B(  0-C ,  1-O ) :   0.8547 B(  0-C ,  7-H ) :   0.9707 B(  0-C ,  8-H ) :   0.9634
B(  0-C ,  9-H ) :   0.9669 B(  1-O ,  2-C ) :   1.1110 B(  2-C ,  3-O ) :   1.1106
B(  2-C ,  5-O ) :   0.9121 B(  2-C , 10-H ) :   0.9629 B(  3-O ,  4-C ) :   0.8546
B(  4-C , 11-H ) :   0.9633 B(  4-C , 12-H ) :   0.9707 B(  4-C , 13-H ) :   0.9669
B(  5-O ,  6-C ) :   0.8433 B(  6-C , 14-H ) :   0.9658 B(  6-C , 15-H ) :   0.9658
B(  6-C , 16-H ) :   0.9731

Dispersion correction           -0.004008126
FINAL SINGLE POINT ENERGY      -383.990810995393

DIPOLE MOMENT
-------------

Method             : SCF
Type of density    : Electron Density
Multiplicity       :   1
Irrep              :   0
Energy             :  -384.0046505559697607 Eh
Relativity type    :
Basis              : AO
                                X                 Y                 Z
Electronic contribution:      4.027143713       0.087669736       3.052534295
Nuclear contribution   :     -4.983538322      -0.105207076      -3.906306988
                        -----------------------------------------
Total Dipole Moment    :     -0.956394610      -0.017537340      -0.853772693
                        -----------------------------------------
Magnitude (a.u.)       :      1.282156784
Magnitude (Debye)      :      3.258983549

Rotational constants in cm-1:             0.115031             0.073280             0.048388
Rotational constants in MHz :          3448.546037          2196.884098          1450.649734

                             ****ORCA TERMINATED NORMALLY****
TOTAL RUN TIME: 0 days 0 hours 0 minutes 25 seconds 796 msec
