                         Program Version 6.0.0  -   RELEASE  -
|  1> ! r2scan-3c def2/J RI DEFGRID2 scfconv6 printgap
|  2> %output
|  3>     printlevel normal
|  4> end
|  5> %cpcm
|  6>     smd true
|  7>     smdsolvent "water"
|  8> end
|  9> * xyz 0 1
| 10> C 0.5597170346 -2.3238400231 -0.2418396211
| 11> O 1.0701615242 -1.0493635059 0.1440325778
| 12> C 0.2472140806 0.0142956072 -0.1695729006
| 13> O 0.9761824321 1.1277722229 0.1987119238
| 14> C 0.3551289348 2.3715338771 -0.1194516228
| 15> O -0.9667317274 -0.0561759721 0.5214085933
| 16> C -2.152984751 -0.0821650949 -0.2696946317
| 17> H 1.3422164322 -3.0297598079 0.0185608826
| 18> H 0.369904072 -2.3460070807 -1.3192603368
| 19> H -0.35519597 -2.5543090195 0.3078559798
| 20> H 0.0339714712 0.0326626948 -1.2678398546
| 21> H 0.1567429549 2.4325653449 -1.1938151333
| 22> H 1.0757045048 3.1280668401 0.1752693831
| 23> H -0.5723701777 2.4935495911 0.4437345315
| 24> H -2.1694533112 -0.9579983602 -0.9224748962
| 25> H -2.2448040652 0.8268975885 -0.8685352326
| 26> H -2.9657677132 -0.1381601433 0.4490867128
| 27> *
| 28>
| 29>                          ****END OF INPUT****

CARTESIAN COORDINATES (ANGSTROEM)
---------------------------------
  C      0.559717   -2.323840   -0.241840
  O      1.070162   -1.049364    0.144033
  C      0.247214    0.014296   -0.169573
  O      0.976182    1.127772    0.198712
  C      0.355129    2.371534   -0.119452
  O     -0.966732   -0.056176    0.521409
  C     -2.152985   -0.082165   -0.269695
  H      1.342216   -3.029760    0.018561
  H      0.369904   -2.346007   -1.319260
  H     -0.355196   -2.554309    0.307856
  H      0.033971    0.032663   -1.267840
  H      0.156743    2.432565   -1.193815
  H      1.075705    3.128067    0.175269
  H     -0.572370    2.493550    0.443735
  H     -2.169453   -0.957998   -0.922475
  H     -2.244804    0.826898   -0.868535
  H     -2.965768   -0.138160    0.449087

 Total Charge           Charge          ....    0
 Multiplicity           Mult            ....    1
 Number of Electrons    NEL             ....   58
 Basis Dimension        Dim             ....  198

ORBITAL ENERGIES
----------------

  NO   OCC          E(Eh)            E(eV)
   0   2.0000     -18.971432      -516.2389
   1   2.0000     -18.971402      -516.2381
   2   2.0000     -18.966557      -516.1062
   3   2.0000     -10.178320      -276.9662
   4   2.0000     -10.070131      -274.0222
   5   2.0000     -10.070111      -274.0217
   6   2.0000     -10.069801      -274.0132
   7   2.0000      -1.075836       -29.2750
   8   2.0000      -0.991542       -26.9812
   9   2.0000      -0.986320       -26.8391
  10   2.0000      -0.714531       -19.4434
  11   2.0000      -0.657686       -17.8966
  12   2.0000      -0.640204       -17.4208
  13   2.0000      -0.573286       -15.5999
  14   2.0000      -0.495321       -13.4784
  15   2.0000      -0.488677       -13.2976
  16   2.0000      -0.488319       -13.2878
  17   2.0000      -0.417799       -11.3689
  18   2.0000      -0.412660       -11.2290
  19   2.0000      -0.397899       -10.8274
  20   2.0000      -0.396697       -10.7947
  21   2.0000      -0.380513       -10.3543
  22   2.0000      -0.376244       -10.2381
  23   2.0000      -0.323635        -8.8066
  24   2.0000      -0.311778        -8.4839
  25   2.0000      -0.303603        -8.2615
  26   2.0000      -0.261842        -7.1251
  27   2.0000      -0.248243        -6.7550
  28   2.0000      -0.238109        -6.4793
  29   0.0000       0.064608         1.7581
  30   0.0000       0.084933         2.3111
  31   0.0000       0.094948         2.5837
  32   0.0000       0.111298         3.0286
  33   0.0000       0.123902         3.3715

MULLIKEN ATOMIC CHARGES
-----------------------
   0 C :   -0.311711
   1 O :   -0.270846
   2 C :    0.091413
   3 O :   -0.270968
   4 C :   -0.311465
   5 O :   -0.266484
   6 C :   -0.324418
   7 H :    0.171977
   8 H :    0.164696
   9 H :    0.170806
  10 H :    0.142035
  11 H :    0.164793
  12 H :    0.171925
  13 H :    0.170799
  14 H :    0.167385
  15 H :    0.167302
  16 H :    0.172760
Sum of atomic charges:   -0.0000000

LOEWDIN ATOMIC CHARGES
----------------------
   0 C :   -0.056526
   1 O :   -0.667705
   2 C :    0.416502
   3 O :   -0.667922
   4 C :   -0.056491
   5 O :   -0.689991
   6 C :   -0.066728
   7 H :    0.185895
   8 H :    0.172638
   9 H :    0.173095
  10 H :    0.200374
  11 H :    0.172693
  12 H :    0.185881
  13 H :    0.173095
  14 H :    0.169852
  15 H :    0.169790
  16 H :    0.185547

  Mayer bond orders larger than 0.100000
B(  0-C ,  1-O ) :   0.8497 B(  0-C ,  7-H ) :   0.9621 B(  0-C ,  8-H ) :   0.9565
B(  0-C ,  9-H ) :   0.9588 B(  1-O ,  2-C ) :   1.1092 B(  2-C ,  3-O ) :   1.1087
B(  2-C ,  5-O ) :   0.9406 B(  2-C , 10-H ) :   0.9529 B(  3-O ,  4-C ) :   0.8496
B(  4-C , 11-H ) :   0.9565 B(  4-C , 12-H ) :   0.9622 B(  4-C , 13-H ) :   0.9588
B(  5-O ,  6-C ) :   0.8339 B(  6-C , 14-H ) :   0.9585 B(  6-C , 15-H ) :   0.9585
B(  6-C , 16-H ) :   0.9655

Dispersion correction           -0.004008126
FINAL SINGLE POINT ENERGY      -384.001280991825

DIPOLE MOMENT
-------------

Method             : SCF
Type of density    : Electron Density
Multiplicity       :   1
Irrep              :   0
Energy             :  -384.0151205524012994 Eh
Relativity type    :
Basis              : AO
                                X                 Y                 Z
Electronic contribution:      3.577136350       0.082444778       2.521006866
Nuclear contribution   :     -4.983538322      -0.105207076      -3.906306988
                        -----------------------------------------
Total Dipole Moment    :     -1.406401972      -0.022762298      -1.385300122
                        -----------------------------------------
Magnitude (a.u.)       :      1.974219100
Magnitude (Debye)      :      5.018066161

Rotational constants in cm-1:             0.115031             0.073280             0.048388
Rotational constants in MHz :          3448.546037          2196.884098          1450.649734

                             ****ORCA TERMINATED NORMALLY****
TOTAL RUN TIME: 0 days 0 hours 0 minutes 30 seconds 525 msec
