                         Program Version 6.0.0  -   RELEASE  -
|  1> ! pbe def2-sv(p) def2/J RI DEFGRID1 loosescf d4 GCP(DFT/SV(P)) printgap
|  2> %output
|  3>     printlevel normal
|  4> end
|  5> * xyz 0 1
|  6> C 0.0485935869 1.5169852141 -0.2680800453
|  7> C -1.3231032224 0.9923841101 0.1255753065
|  8> Cl -1.5771017946 -0.7218100154 -0.3847571463
|  9> C 1.1963657014 0.9936302691 0.5807106863
| 10> Cl 1.6107316695 -0.7221580708 0.1962474206
| 11> H 0.2386819857 1.3039289277 -1.3203119435
| 12> H 0.0245642586 2.6008183698 -0.1378001045
| 13> H -1.4645329839 1.0096675267 1.2043688818
| 14> H -2.1085430869 1.5595466229 -0.3684853946
| 15> H 0.9526637847 1.0142349371 1.6410353942
| 16> H 2.1054531301 1.5592674221 0.3900533932
| 17> *
| 18>
| 19>                          ****END OF INPUT****

CARTESIAN COORDINATES (ANGSTROEM)
---------------------------------
  C      0.048594    1.516985   -0.268080
  C     -1.323103    0.992384    0.125575
  Cl    -1.577102   -0.721810   -0.384757
  C      1.196366    0.993630    0.580711
  Cl     1.610732   -0.722158    0.196247
  H      0.238682    1.303929   -1.320312
  H      0.024564    2.600818   -0.137800
  H     -1.464533    1.009668    1.204369
  H     -2.108543    1.559547   -0.368485
  H      0.952664    1.014235    1.641035
  H      2.105453    1.559267    0.390053

 Total Charge           Charge          ....    0
 Multiplicity           Mult            ....    1
 Number of Electrons    NEL             ....   58
 Basis Dimension        Dim             ....   90

ORBITAL ENERGIES
----------------

  NO   OCC          E(Eh)            E(eV)
   0   2.0000    -100.614269     -2737.8534
   1   2.0000    -100.614191     -2737.8513
   2   2.0000      -9.948620      -270.7157
   3   2.0000      -9.948574      -270.7145
   4   2.0000      -9.916093      -269.8306
   5   2.0000      -9.149951      -248.9828
   6   2.0000      -9.149884      -248.9810
   7   2.0000      -6.981787      -189.9841
   8   2.0000      -6.981762      -189.9834
   9   2.0000      -6.969575      -189.6518
  10   2.0000      -6.969559      -189.6514
  11   2.0000      -6.969274      -189.6436
  12   2.0000      -6.969231      -189.6424
  13   2.0000      -0.789535       -21.4843
  14   2.0000      -0.757612       -20.6157
  15   2.0000      -0.687379       -18.7045
  16   2.0000      -0.598531       -16.2869
  17   2.0000      -0.537223       -14.6186
  18   2.0000      -0.444326       -12.0907
  19   2.0000      -0.431544       -11.7429
  20   2.0000      -0.409148       -11.1335
  21   2.0000      -0.364531        -9.9194
  22   2.0000      -0.356209        -9.6929
  23   2.0000      -0.343662        -9.3515
  24   2.0000      -0.325186        -8.8488
  25   2.0000      -0.265437        -7.2229
  26   2.0000      -0.246384        -6.7044
  27   2.0000      -0.241487        -6.5712
  28   2.0000      -0.220449        -5.9987
  29   0.0000       0.005297         0.1441
  30   0.0000       0.007109         0.1934
  31   0.0000       0.029077         0.7912
  32   0.0000       0.059981         1.6322
  33   0.0000       0.077122         2.0986

MULLIKEN ATOMIC CHARGES
-----------------------
   0 C :   -0.151672
   1 C :   -0.170144
   2 Cl:   -0.144015
   3 C :   -0.169733
   4 Cl:   -0.144148
   5 H :    0.120920
   6 H :    0.105738
   7 H :    0.134624
   8 H :    0.141988
   9 H :    0.134523
  10 H :    0.141920
Sum of atomic charges:   -0.0000000

LOEWDIN ATOMIC CHARGES
----------------------
   0 C :   -0.268716
   1 C :   -0.272137
   2 Cl:    0.021174
   3 C :   -0.272071
   4 Cl:    0.021127
   5 H :    0.131334
   6 H :    0.135081
   7 H :    0.124575
   8 H :    0.127564
   9 H :    0.124526
  10 H :    0.127542

  Mayer bond orders larger than 0.100000
B(  0-C ,  1-C ) :   1.0996 B(  0-C ,  3-C ) :   1.1001 B(  0-C ,  5-H ) :   0.9133
B(  0-C ,  6-H ) :   0.8940 B(  1-C ,  2-Cl) :   1.0545 B(  1-C ,  7-H ) :   0.9271
B(  1-C ,  8-H ) :   0.9317 B(  3-C ,  4-Cl) :   1.0543 B(  3-C ,  9-H ) :   0.9271
B(  3-C , 10-H ) :   0.9317

Dispersion correction           -0.009650457
FINAL SINGLE POINT ENERGY     -1037.357210012176

DIPOLE MOMENT
-------------

Method             : SCF
Type of density    : Electron Density
Multiplicity       :   1
Irrep              :   0
Energy             : -1037.3923620016439600 Eh
Relativity type    :
Basis              : AO
                                X                 Y                 Z
Electronic contribution:      0.232516822      -9.138443615      -1.303040953
Nuclear contribution   :     -0.281288514      10.426186157       1.574773711
                        -----------------------------------------
Total Dipole Moment    :     -0.048771692       1.287742542       0.271732758
                        -----------------------------------------
Magnitude (a.u.)       :      1.317003502
Magnitude (Debye)      :      3.347556867

Rotational constants in cm-1:             0.147269             0.068105             0.049221
Rotational constants in MHz :          4415.024197          2041.745338          1475.612139

                             ****ORCA TERMINATED NORMALLY****
TOTAL RUN TIME: 0 days 0 hours 0 minutes 5 seconds 996 msec
