                         Program Version 6.0.0  -   RELEASE  -
|  1> ! r2scan-3c def2/J RI DEFGRID2 scfconv6 printgap
|  2> %output
|  3>     printlevel normal
|  4> end
|  5> * xyz 0 1
|  6> C 0.7977954396 -2.2985205253 -0.0968825711
|  7> O 0.7074635344 -1.0368695055 0.5617225414
|  8> C 0.3211689417 0.0005148429 -0.2679831863
|  9> O 0.5998023493 1.1571917712 0.437753732
| 10> C 0.5711283668 2.3395109753 -0.3590508623
| 11> O -1.0122860903 -0.0873073872 -0.6643442165
| 12> C -1.9558052228 -0.0718154526 0.4116869505
| 13> H 1.5827523054 -2.2706446219 -0.8573102949
| 14> H -0.1545105542 -2.5604466305 -0.563181028
| 15> H 1.0495332818 -3.00951762 0.6840614616
| 16> H 0.8809100987 -0.0263669891 -1.2279979243
| 17> H 1.3607172839 2.3034820259 -1.1143021806
| 18> H 0.7460740209 3.1550984158 0.3359116718
| 19> H -0.3987264166 2.452588642 -0.84857219
| 20> H -1.8713587357 0.8578622734 0.9770105325
| 21> H -1.7831229913 -0.91719603 1.0799076353
| 22> H -2.9283186669 -0.1477356622 -0.0646161574
| 23> *
| 24>
| 25>                          ****END OF INPUT****

CARTESIAN COORDINATES (ANGSTROEM)
---------------------------------
  C      0.797795   -2.298521   -0.096883
  O      0.707464   -1.036870    0.561723
  C      0.321169    0.000515   -0.267983
  O      0.599802    1.157192    0.437754
  C      0.571128    2.339511   -0.359051
  O     -1.012286   -0.087307   -0.664344
  C     -1.955805   -0.071815    0.411687
  H      1.582752   -2.270645   -0.857310
  H     -0.154511   -2.560447   -0.563181
  H      1.049533   -3.009518    0.684061
  H      0.880910   -0.026367   -1.227998
  H      1.360717    2.303482   -1.114302
  H      0.746074    3.155098    0.335912
  H     -0.398726    2.452589   -0.848572
  H     -1.871359    0.857862    0.977011
  H     -1.783123   -0.917196    1.079908
  H     -2.928319   -0.147736   -0.064616

 Total Charge           Charge          ....    0
 Multiplicity           Mult            ....    1
 Number of Electrons    NEL             ....   58
 Basis Dimension        Dim             ....  198

ORBITAL ENERGIES
----------------

  NO   OCC          E(Eh)            E(eV)
   0   2.0000     -18.961372      -515.9652
   1   2.0000     -18.961348      -515.9645
   2   2.0000     -18.957415      -515.8575
   3   2.0000     -10.171978      -276.7936
   4   2.0000     -10.076751      -274.2023
   5   2.0000     -10.076727      -274.2017
   6   2.0000     -10.067127      -273.9405
   7   2.0000      -1.067884       -29.0586
   8   2.0000      -0.984221       -26.7820
   9   2.0000      -0.974999       -26.5311
  10   2.0000      -0.708568       -19.2811
  11   2.0000      -0.666857       -18.1461
  12   2.0000      -0.644879       -17.5481
  13   2.0000      -0.561582       -15.2814
  14   2.0000      -0.493454       -13.4276
  15   2.0000      -0.483479       -13.1561
  16   2.0000      -0.482847       -13.1389
  17   2.0000      -0.424576       -11.5533
  18   2.0000      -0.410750       -11.1771
  19   2.0000      -0.399508       -10.8712
  20   2.0000      -0.390068       -10.6143
  21   2.0000      -0.382461       -10.4073
  22   2.0000      -0.367419        -9.9980
  23   2.0000      -0.334185        -9.0936
  24   2.0000      -0.320469        -8.7204
  25   2.0000      -0.274846        -7.4789
  26   2.0000      -0.250458        -6.8153
  27   2.0000      -0.245248        -6.6735
  28   2.0000      -0.234556        -6.3826
  29   0.0000       0.063322         1.7231
  30   0.0000       0.087647         2.3850
  31   0.0000       0.094099         2.5606
  32   0.0000       0.097925         2.6647
  33   0.0000       0.113256         3.0819

MULLIKEN ATOMIC CHARGES
-----------------------
   0 C :   -0.301459
   1 O :   -0.236947
   2 C :    0.158469
   3 O :   -0.237037
   4 C :   -0.301548
   5 O :   -0.241001
   6 C :   -0.298529
   7 H :    0.138772
   8 H :    0.159887
   9 H :    0.152750
  10 H :    0.099012
  11 H :    0.138817
  12 H :    0.152769
  13 H :    0.159906
  14 H :    0.154504
  15 H :    0.154574
  16 H :    0.147062
Sum of atomic charges:    0.0000000

LOEWDIN ATOMIC CHARGES
----------------------
   0 C :   -0.060316
   1 O :   -0.639955
   2 C :    0.407322
   3 O :   -0.639924
   4 C :   -0.060326
   5 O :   -0.659562
   6 C :   -0.067974
   7 H :    0.160955
   8 H :    0.166719
   9 H :    0.178074
  10 H :    0.196858
  11 H :    0.160959
  12 H :    0.178080
  13 H :    0.166741
  14 H :    0.169111
  15 H :    0.169154
  16 H :    0.174084

  Mayer bond orders larger than 0.100000
B(  0-C ,  1-O ) :   0.8628 B(  0-C ,  7-H ) :   0.9686 B(  0-C ,  8-H ) :   0.9649
B(  0-C ,  9-H ) :   0.9705 B(  1-O ,  2-C ) :   1.0583 B(  2-C ,  3-O ) :   1.0583
B(  2-C ,  5-O ) :   0.9848 B(  2-C , 10-H ) :   0.9562 B(  3-O ,  4-C ) :   0.8628
B(  4-C , 11-H ) :   0.9686 B(  4-C , 12-H ) :   0.9704 B(  4-C , 13-H ) :   0.9649
B(  5-O ,  6-C ) :   0.8747 B(  6-C , 14-H ) :   0.9652 B(  6-C , 15-H ) :   0.9652
B(  6-C , 16-H ) :   0.9720

Dispersion correction           -0.003997731
FINAL SINGLE POINT ENERGY      -383.996576726524

DIPOLE MOMENT
-------------

Method             : SCF
Type of density    : Electron Density
Multiplicity       :   1
Irrep              :   0
Energy             :  -384.0105297885300502 Eh
Relativity type    :
Basis              : AO
                                X                 Y                 Z
Electronic contribution:      1.292897613       0.124286285       1.100238378
Nuclear contribution   :     -1.417936216      -0.152315720      -1.495244615
                        -----------------------------------------
Total Dipole Moment    :     -0.125038603      -0.028029434      -0.395006238
                        -----------------------------------------
Magnitude (a.u.)       :      0.415271272
Magnitude (Debye)      :      1.055535688

Rotational constants in cm-1:             0.122601             0.070459             0.052045
Rotational constants in MHz :          3675.482208          2112.300790          1560.269912

                             ****ORCA TERMINATED NORMALLY****
TOTAL RUN TIME: 0 days 0 hours 0 minutes 23 seconds 686 msec
