                         Program Version 6.0.0  -   RELEASE  -
|  1> ! r2scan-3c def2/J RI DEFGRID2 scfconv6 printgap
|  2> %output
|  3>     printlevel normal
|  4> end
|  5> %cpcm
|  6>     smd true
|  7>     smdsolvent "water"
|  8> end
|  9> * xyz 0 1
| 10> C 0.7977954396 -2.2985205253 -0.0968825711
| 11> O 0.7074635344 -1.0368695055 0.5617225414
| 12> C 0.3211689417 0.0005148429 -0.2679831863
| 13> O 0.5998023493 1.1571917712 0.437753732
| 14> C 0.5711283668 2.3395109753 -0.3590508623
| 15> O -1.0122860903 -0.0873073872 -0.6643442165
| 16> C -1.9558052228 -0.0718154526 0.4116869505
| 17> H 1.5827523054 -2.2706446219 -0.8573102949
| 18> H -0.1545105542 -2.5604466305 -0.563181028
| 19> H 1.0495332818 -3.00951762 0.6840614616
| 20> H 0.8809100987 -0.0263669891 -1.2279979243
| 21> H 1.3607172839 2.3034820259 -1.1143021806
| 22> H 0.7460740209 3.1550984158 0.3359116718
| 23> H -0.3987264166 2.452588642 -0.84857219
| 24> H -1.8713587357 0.8578622734 0.9770105325
| 25> H -1.7831229913 -0.91719603 1.0799076353
| 26> H -2.9283186669 -0.1477356622 -0.0646161574
| 27> *
| 28>
| 29>                          ****END OF INPUT****

CARTESIAN COORDINATES (ANGSTROEM)
---------------------------------
  C      0.797795   -2.298521   -0.096883
  O      0.707464   -1.036870    0.561723
  C      0.321169    0.000515   -0.267983
  O      0.599802    1.157192    0.437754
  C      0.571128    2.339511   -0.359051
  O     -1.012286   -0.087307   -0.664344
  C     -1.955805   -0.071815    0.411687
  H      1.582752   -2.270645   -0.857310
  H     -0.154511   -2.560447   -0.563181
  H      1.049533   -3.009518    0.684061
  H      0.880910   -0.026367   -1.227998
  H      1.360717    2.303482   -1.114302
  H      0.746074    3.155098    0.335912
  H     -0.398726    2.452589   -0.848572
  H     -1.871359    0.857862    0.977011
  H     -1.783123   -0.917196    1.079908
  H     -2.928319   -0.147736   -0.064616

 Total Charge           Charge          ....    0
 Multiplicity           Mult            ....    1
 Number of Electrons    NEL             ....   58
 Basis Dimension        Dim             ....  198

ORBITAL ENERGIES
----------------

  NO   OCC          E(Eh)            E(eV)
   0   2.0000     -18.970963      -516.2262
   1   2.0000     -18.970914      -516.2248
   2   2.0000     -18.966272      -516.0985
   3   2.0000     -10.175690      -276.8946
   4   2.0000     -10.070238      -274.0251
   5   2.0000     -10.070207      -274.0243
   6   2.0000     -10.065128      -273.8861
   7   2.0000      -1.076195       -29.2847
   8   2.0000      -0.991944       -26.9922
   9   2.0000      -0.983336       -26.7579
  10   2.0000      -0.709607       -19.3094
  11   2.0000      -0.667875       -18.1738
  12   2.0000      -0.640858       -17.4386
  13   2.0000      -0.561972       -15.2920
  14   2.0000      -0.494119       -13.4457
  15   2.0000      -0.488669       -13.2974
  16   2.0000      -0.487230       -13.2582
  17   2.0000      -0.423261       -11.5175
  18   2.0000      -0.410613       -11.1733
  19   2.0000      -0.398744       -10.8504
  20   2.0000      -0.388055       -10.5595
  21   2.0000      -0.383511       -10.4359
  22   2.0000      -0.363716        -9.8972
  23   2.0000      -0.338795        -9.2191
  24   2.0000      -0.324033        -8.8174
  25   2.0000      -0.283195        -7.7061
  26   2.0000      -0.256167        -6.9707
  27   2.0000      -0.252641        -6.8747
  28   2.0000      -0.243664        -6.6304
  29   0.0000       0.065062         1.7704
  30   0.0000       0.088018         2.3951
  31   0.0000       0.096033         2.6132
  32   0.0000       0.106117         2.8876
  33   0.0000       0.119326         3.2470

MULLIKEN ATOMIC CHARGES
-----------------------
   0 C :   -0.318471
   1 O :   -0.288393
   2 C :    0.162673
   3 O :   -0.288454
   4 C :   -0.318790
   5 O :   -0.285461
   6 C :   -0.321762
   7 H :    0.165041
   8 H :    0.169373
   9 H :    0.172553
  10 H :    0.137871
  11 H :    0.165187
  12 H :    0.172627
  13 H :    0.169410
  14 H :    0.168070
  15 H :    0.168077
  16 H :    0.170450
Sum of atomic charges:   -0.0000000

LOEWDIN ATOMIC CHARGES
----------------------
   0 C :   -0.056489
   1 O :   -0.673614
   2 C :    0.404712
   3 O :   -0.673613
   4 C :   -0.056535
   5 O :   -0.681781
   6 C :   -0.068524
   7 H :    0.172266
   8 H :    0.172578
   9 H :    0.185898
  10 H :    0.213050
  11 H :    0.172301
  12 H :    0.185929
  13 H :    0.172598
  14 H :    0.173632
  15 H :    0.173643
  16 H :    0.183950

  Mayer bond orders larger than 0.100000
B(  0-C ,  1-O ) :   0.8528 B(  0-C ,  7-H ) :   0.9607 B(  0-C ,  8-H ) :   0.9592
B(  0-C ,  9-H ) :   0.9617 B(  1-O ,  2-C ) :   1.0560 B(  2-C ,  3-O ) :   1.0561
B(  2-C ,  5-O ) :   0.9667 B(  2-C , 10-H ) :   0.9557 B(  3-O ,  4-C ) :   0.8527
B(  4-C , 11-H ) :   0.9607 B(  4-C , 12-H ) :   0.9616 B(  4-C , 13-H ) :   0.9591
B(  5-O ,  6-C ) :   0.8594 B(  6-C , 14-H ) :   0.9599 B(  6-C , 15-H ) :   0.9599
B(  6-C , 16-H ) :   0.9630

Dispersion correction           -0.003997731
FINAL SINGLE POINT ENERGY      -384.003009468962

DIPOLE MOMENT
-------------

Method             : SCF
Type of density    : Electron Density
Multiplicity       :   1
Irrep              :   0
Energy             :  -384.0169625309678167 Eh
Relativity type    :
Basis              : AO
                                X                 Y                 Z
Electronic contribution:      1.250255042       0.107901904       0.846940363
Nuclear contribution   :     -1.417936216      -0.152315720      -1.495244615
                        -----------------------------------------
Total Dipole Moment    :     -0.167681174      -0.044413816      -0.648304252
                        -----------------------------------------
Magnitude (a.u.)       :      0.671109504
Magnitude (Debye)      :      1.705824795

Rotational constants in cm-1:             0.122601             0.070459             0.052045
Rotational constants in MHz :          3675.482208          2112.300790          1560.269912

                             ****ORCA TERMINATED NORMALLY****
TOTAL RUN TIME: 0 days 0 hours 0 minutes 30 seconds 153 msec
