                         Program Version 6.0.0  -   RELEASE  -
|  1> ! pbe def2-sv(p) def2/J RI DEFGRID1 loosescf d4 GCP(DFT/SV(P)) printgap
|  2> %output
|  3>     printlevel normal
|  4> end
|  5> * xyz 0 1
|  6> C -1.03944e-05 -0.1242293146 -1.43e-05
|  7> C -1.2432674457 0.7468294035 -0.1129308848
|  8> Cl -2.7069477365 -0.2878758591 -0.2477151081
|  9> C 1.2432348015 0.7468235709 0.1130899046
| 10> Cl 2.70696678 -0.2878455561 0.2476607113
| 11> H -0.0799935939 -0.7650599703 0.8790881135
| 12> H 0.0799190158 -0.764737934 -0.8793174927
| 13> H -1.3840071143 1.3646993787 0.7715539354
| 14> H -1.2211056217 1.3661600778 -1.0073797876
| 15> H 1.2211522097 1.3660772132 1.0076072185
| 16> H 1.3838781285 1.3648676361 -0.7713631486
| 17> *
| 18>
| 19>                          ****END OF INPUT****

CARTESIAN COORDINATES (ANGSTROEM)
---------------------------------
  C     -0.000010   -0.124229   -0.000014
  C     -1.243267    0.746829   -0.112931
  Cl    -2.706948   -0.287876   -0.247715
  C      1.243235    0.746824    0.113090
  Cl     2.706967   -0.287846    0.247661
  H     -0.079994   -0.765060    0.879088
  H      0.079919   -0.764738   -0.879317
  H     -1.384007    1.364699    0.771554
  H     -1.221106    1.366160   -1.007380
  H      1.221152    1.366077    1.007607
  H      1.383878    1.364868   -0.771363

 Total Charge           Charge          ....    0
 Multiplicity           Mult            ....    1
 Number of Electrons    NEL             ....   58
 Basis Dimension        Dim             ....   90

ORBITAL ENERGIES
----------------

  NO   OCC          E(Eh)            E(eV)
   0   2.0000    -100.625061     -2738.1471
   1   2.0000    -100.625059     -2738.1470
   2   2.0000      -9.953627      -270.8520
   3   2.0000      -9.953614      -270.8516
   4   2.0000      -9.913165      -269.7509
   5   2.0000      -9.160796      -249.2779
   6   2.0000      -9.160793      -249.2779
   7   2.0000      -6.992580      -190.2778
   8   2.0000      -6.992580      -190.2778
   9   2.0000      -6.980396      -189.9462
  10   2.0000      -6.980394      -189.9462
  11   2.0000      -6.980260      -189.9425
  12   2.0000      -6.980260      -189.9425
  13   2.0000      -0.794658       -21.6237
  14   2.0000      -0.773652       -21.0522
  15   2.0000      -0.690024       -18.7765
  16   2.0000      -0.592769       -16.1301
  17   2.0000      -0.549902       -14.9636
  18   2.0000      -0.460588       -12.5332
  19   2.0000      -0.408767       -11.1231
  20   2.0000      -0.407329       -11.0840
  21   2.0000      -0.403356       -10.9759
  22   2.0000      -0.348474        -9.4825
  23   2.0000      -0.343879        -9.3574
  24   2.0000      -0.329240        -8.9591
  25   2.0000      -0.263104        -7.1594
  26   2.0000      -0.254898        -6.9361
  27   2.0000      -0.250414        -6.8141
  28   2.0000      -0.245287        -6.6746
  29   0.0000      -0.023800        -0.6476
  30   0.0000       0.032748         0.8911
  31   0.0000       0.036234         0.9860
  32   0.0000       0.057219         1.5570
  33   0.0000       0.074778         2.0348

MULLIKEN ATOMIC CHARGES
-----------------------
   0 C :   -0.141803
   1 C :   -0.183003
   2 Cl:   -0.139173
   3 C :   -0.183023
   4 Cl:   -0.139169
   5 H :    0.115499
   6 H :    0.115489
   7 H :    0.138841
   8 H :    0.138745
   9 H :    0.138753
  10 H :    0.138843
Sum of atomic charges:   -0.0000000

LOEWDIN ATOMIC CHARGES
----------------------
   0 C :   -0.272198
   1 C :   -0.273370
   2 Cl:    0.029646
   3 C :   -0.273368
   4 Cl:    0.029642
   5 H :    0.128275
   6 H :    0.128278
   7 H :    0.125795
   8 H :    0.125753
   9 H :    0.125752
  10 H :    0.125794

  Mayer bond orders larger than 0.100000
B(  0-C ,  1-C ) :   1.0881 B(  0-C ,  3-C ) :   1.0881 B(  0-C ,  5-H ) :   0.9164
B(  0-C ,  6-H ) :   0.9164 B(  1-C ,  2-Cl) :   1.0461 B(  1-C ,  7-H ) :   0.9277
B(  1-C ,  8-H ) :   0.9277 B(  3-C ,  4-Cl) :   1.0461 B(  3-C ,  9-H ) :   0.9277
B(  3-C , 10-H ) :   0.9277

Dispersion correction           -0.008568311
FINAL SINGLE POINT ENERGY     -1037.359826337518

DIPOLE MOMENT
-------------

Method             : SCF
Type of density    : Electron Density
Multiplicity       :   1
Irrep              :   0
Energy             : -1037.3964479880987710 Eh
Relativity type    :
Basis              : AO
                                X                 Y                 Z
Electronic contribution:      0.000145136      -3.751481416      -0.000192858
Nuclear contribution   :     -0.000172831       4.461638685       0.000250174
                        -----------------------------------------
Total Dipole Moment    :     -0.000027695       0.710157269       0.000057316
                        -----------------------------------------
Magnitude (a.u.)       :      0.710157272
Magnitude (Debye)      :      1.805076334

Rotational constants in cm-1:             0.511704             0.029418             0.028265
Rotational constants in MHz :         15340.496986           881.921126           847.366328

                             ****ORCA TERMINATED NORMALLY****
TOTAL RUN TIME: 0 days 0 hours 0 minutes 6 seconds 49 msec
