                         Program Version 6.0.0  -   RELEASE  -
|  1> ! r2scan-3c def2/J RI DEFGRID2 scfconv6 printgap
|  2> %output
|  3>     printlevel normal
|  4> end
|  5> %cpcm
|  6>     smd true
|  7>     smdsolvent "water"
|  8> end
|  9> * xyz 0 1
| 10> C -4.5167348169 -1.1095836516 -0.4480442609
| 11> C -3.7828062676 -2.2725643901 -0.259605827
| 12> C -2.4225331674 -2.202206633 -0.0228540735
| 13> C -1.770573862 -0.9717922843 0.0262392643
| 14> C -2.5118902837 0.1993419973 -0.1657395614
| 15> C -3.8835023516 0.1177942876 -0.3999123976
| 16> C -1.8610922649 1.514482001 -0.1237190409
| 17> O -2.5029231253 2.5537964672 -0.2654646225
| 18> C -0.4031657187 1.5285010352 0.0884207391
| 19> C 0.2182957363 2.7651853943 0.0693472207
| 20> C 1.5950470153 2.8637965461 0.2511406865
| 21> C 2.3450981463 1.7367690545 0.4536220163
| 22> C 1.7538412567 0.4498403222 0.4916563844
| 23> C 0.3411860119 0.3434640004 0.2979343371
| 24> C -0.3179883729 -0.9449186343 0.2908752419
| 25> O 0.2738556747 -2.0202055258 0.4908966539
| 26> N 2.4902760845 -0.6422212709 0.7368494659
| 27> C 3.9283140673 -0.7077822217 0.7880182089
| 28> C 4.5711981325 -0.6620556552 -0.6114214046
| 29> O 4.2149751043 -1.7605279429 -1.4172314961
| 30> H -5.5783516694 -1.1614139701 -0.6314775831
| 31> H -4.2721813398 -3.2331684632 -0.2965293173
| 32> H -1.834676925 -3.0953451818 0.1287941859
| 33> H -4.4290297372 1.0389716391 -0.5423187944
| 34> H -0.3898802378 3.6418236114 -0.0923552068
| 35> H 2.0687164962 3.8326653 0.2297467208
| 36> H 3.4090965003 1.8299014463 0.5899966952
| 37> H 1.9823211306 -1.5214095097 0.6615137882
| 38> H 4.1896465233 -1.6482925893 1.2757746391
| 39> H 4.327392654 0.111961964 1.388224146
| 40> H 5.6609214369 -0.597622458 -0.5022680792
| 41> H 4.2182877165 0.2176018323 -1.1544310082
| 42> H 4.5654776012 -2.5734556108 -1.0271168491
| 43> *
| 44>
| 45>                          ****END OF INPUT****

CARTESIAN COORDINATES (ANGSTROEM)
---------------------------------
  C     -4.516735   -1.109584   -0.448044
  C     -3.782806   -2.272564   -0.259606
  C     -2.422533   -2.202207   -0.022854
  C     -1.770574   -0.971792    0.026239
  C     -2.511890    0.199342   -0.165740
  C     -3.883502    0.117794   -0.399912
  C     -1.861092    1.514482   -0.123719
  O     -2.502923    2.553796   -0.265465
  C     -0.403166    1.528501    0.088421
  C      0.218296    2.765185    0.069347
  C      1.595047    2.863797    0.251141
  C      2.345098    1.736769    0.453622
  C      1.753841    0.449840    0.491656
  C      0.341186    0.343464    0.297934
  C     -0.317988   -0.944919    0.290875
  O      0.273856   -2.020206    0.490897
  N      2.490276   -0.642221    0.736849
  C      3.928314   -0.707782    0.788018
  C      4.571198   -0.662056   -0.611421
  O      4.214975   -1.760528   -1.417231
  H     -5.578352   -1.161414   -0.631478
  H     -4.272181   -3.233168   -0.296529
  H     -1.834677   -3.095345    0.128794
  H     -4.429030    1.038972   -0.542319
  H     -0.389880    3.641824   -0.092355
  H      2.068716    3.832665    0.229747
  H      3.409097    1.829901    0.589997
  H      1.982321   -1.521410    0.661514
  H      4.189647   -1.648293    1.275775
  H      4.327393    0.111962    1.388224
  H      5.660921   -0.597622   -0.502268
  H      4.218288    0.217602   -1.154431
  H      4.565478   -2.573456   -1.027117

 Total Charge           Charge          ....    0
 Multiplicity           Mult            ....    1
 Number of Electrons    NEL             ....  140
 Basis Dimension        Dim             ....  465

ORBITAL ENERGIES
----------------

  NO   OCC          E(Eh)            E(eV)
   0   2.0000     -18.954831      -515.7872
   1   2.0000     -18.949017      -515.6290
   2   2.0000     -18.946789      -515.5684
   3   2.0000     -14.184227      -385.9724
   4   2.0000     -10.131817      -275.7008
   5   2.0000     -10.127766      -275.5905
   6   2.0000     -10.100694      -274.8539
   7   2.0000     -10.075446      -274.1668
   8   2.0000     -10.064040      -273.8564
   9   2.0000     -10.060235      -273.7529
  10   2.0000     -10.060106      -273.7494
  11   2.0000     -10.058352      -273.7017
  12   2.0000     -10.056612      -273.6543
  13   2.0000     -10.050236      -273.4808
  14   2.0000     -10.049992      -273.4742
  15   2.0000     -10.049761      -273.4679
  16   2.0000     -10.048330      -273.4290
  17   2.0000     -10.048118      -273.4232
  18   2.0000     -10.046301      -273.3737
  19   2.0000     -10.042175      -273.2615
  20   2.0000      -1.015953       -27.6455
  21   2.0000      -1.011960       -27.5368
  22   2.0000      -0.992021       -26.9943
  23   2.0000      -0.922770       -25.1099
  24   2.0000      -0.851290       -23.1648
  25   2.0000      -0.832708       -22.6591
  26   2.0000      -0.773161       -21.0388
  27   2.0000      -0.741171       -20.1683
  28   2.0000      -0.736821       -20.0499
  29   2.0000      -0.730154       -19.8685
  30   2.0000      -0.691845       -18.8261
  31   2.0000      -0.652264       -17.7490
  32   2.0000      -0.629017       -17.1164
  33   2.0000      -0.609903       -16.5963
  34   2.0000      -0.600947       -16.3526
  35   2.0000      -0.566030       -15.4025
  36   2.0000      -0.551117       -14.9966
  37   2.0000      -0.521155       -14.1813
  38   2.0000      -0.515836       -14.0366
  39   2.0000      -0.490966       -13.3599
  40   2.0000      -0.477607       -12.9963
  41   2.0000      -0.462315       -12.5802
  42   2.0000      -0.446975       -12.1628
  43   2.0000      -0.445854       -12.1323
  44   2.0000      -0.433511       -11.7964
  45   2.0000      -0.431106       -11.7310
  46   2.0000      -0.420392       -11.4395
  47   2.0000      -0.418266       -11.3816
  48   2.0000      -0.413318       -11.2470
  49   2.0000      -0.407537       -11.0896
  50   2.0000      -0.405247       -11.0273
  51   2.0000      -0.397980       -10.8296
  52   2.0000      -0.385207       -10.4820
  53   2.0000      -0.381844       -10.3905
  54   2.0000      -0.365667        -9.9503
  55   2.0000      -0.352829        -9.6010
  56   2.0000      -0.344999        -9.3879
  57   2.0000      -0.340064        -9.2536
  58   2.0000      -0.337578        -9.1860
  59   2.0000      -0.329370        -8.9626
  60   2.0000      -0.322490        -8.7754
  61   2.0000      -0.309913        -8.4332
  62   2.0000      -0.292036        -7.9467
  63   2.0000      -0.264757        -7.2044
  64   2.0000      -0.252270        -6.8646
  65   2.0000      -0.251352        -6.8396
  66   2.0000      -0.248738        -6.7685
  67   2.0000      -0.244294        -6.6476
  68   2.0000      -0.230758        -6.2792
  69   2.0000      -0.194935        -5.3044
  70   0.0000      -0.133818        -3.6414
  71   0.0000      -0.080454        -2.1893
  72   0.0000      -0.048851        -1.3293
  73   0.0000      -0.028312        -0.7704
  74   0.0000       0.024254         0.6600

MULLIKEN ATOMIC CHARGES
-----------------------
   0 C :   -0.169367
   1 C :   -0.158781
   2 C :   -0.241055
   3 C :    0.193833
   4 C :    0.137380
   5 C :   -0.228448
   6 C :    0.080646
   7 O :   -0.441045
   8 C :    0.191752
   9 C :   -0.256350
  10 C :   -0.183083
  11 C :   -0.294468
  12 C :    0.289004
  13 C :   -0.144436
  14 C :    0.033278
  15 O :   -0.502878
  16 N :   -0.050202
  17 C :   -0.338909
  18 C :   -0.129887
  19 O :   -0.491096
  20 H :    0.185360
  21 H :    0.185570
  22 H :    0.197318
  23 H :    0.195916
  24 H :    0.197351
  25 H :    0.184013
  26 H :    0.184917
  27 H :    0.343744
  28 H :    0.187537
  29 H :    0.179035
  30 H :    0.153467
  31 H :    0.158717
  32 H :    0.351167
Sum of atomic charges:    0.0000000

LOEWDIN ATOMIC CHARGES
----------------------
   0 C :   -0.139160
   1 C :   -0.132119
   2 C :   -0.108255
   3 C :   -0.027565
   4 C :   -0.042328
   5 C :   -0.101873
   6 C :    0.276614
   7 O :   -0.548874
   8 C :   -0.032169
   9 C :   -0.126123
  10 C :   -0.124471
  11 C :   -0.121579
  12 C :    0.200464
  13 C :   -0.039013
  14 C :    0.270723
  15 O :   -0.582151
  16 N :   -0.661164
  17 C :   -0.025496
  18 C :    0.028310
  19 O :   -0.635193
  20 H :    0.184313
  21 H :    0.184530
  22 H :    0.196700
  23 H :    0.195025
  24 H :    0.195927
  25 H :    0.186177
  26 H :    0.192397
  27 H :    0.298025
  28 H :    0.200308
  29 H :    0.194840
  30 H :    0.170600
  31 H :    0.187067
  32 H :    0.285512

  Mayer bond orders larger than 0.100000
B(  0-C ,  1-C ) :   1.3100 B(  0-C ,  5-C ) :   1.3540 B(  0-C , 20-H ) :   0.9603
B(  1-C ,  2-C ) :   1.3399 B(  1-C , 21-H ) :   0.9603 B(  2-C ,  3-C ) :   1.3001
B(  2-C , 15-O ) :   0.1002 B(  2-C , 22-H ) :   0.9720 B(  3-C ,  4-C ) :   1.5053
B(  3-C , 14-C ) :   0.9127 B(  3-C , 15-O ) :  -0.2011 B(  4-C ,  5-C ) :   1.2880
B(  4-C ,  6-C ) :   0.8660 B(  4-C ,  7-O ) :  -0.2219 B(  5-C ,  7-O ) :   0.1042
B(  5-C , 23-H ) :   0.9738 B(  6-C ,  7-O ) :   2.0574 B(  6-C ,  8-C ) :   0.8758
B(  7-O ,  8-C ) :  -0.2136 B(  7-O ,  9-C ) :   0.1211 B(  8-C ,  9-C ) :   1.3347
B(  8-C , 13-C ) :   1.2582 B(  9-C , 10-C ) :   1.2332 B(  9-C , 24-H ) :   0.9794
B( 10-C , 11-C ) :   1.3873 B( 10-C , 25-H ) :   0.9755 B( 11-C , 12-C ) :   1.0973
B( 11-C , 26-H ) :   0.9559 B( 12-C , 13-C ) :   1.2142 B( 12-C , 16-N ) :   1.3041
B( 13-C , 14-C ) :   0.9656 B( 13-C , 15-O ) :  -0.1318 B( 14-C , 15-O ) :   1.8677
B( 16-N , 17-C ) :   0.8399 B( 16-N , 27-H ) :   0.8232 B( 17-C , 18-C ) :   0.8906
B( 17-C , 28-H ) :   0.9598 B( 17-C , 29-H ) :   0.9555 B( 18-C , 19-O ) :   0.9608
B( 18-C , 30-H ) :   0.9697 B( 18-C , 31-H ) :   0.9687 B( 19-O , 32-H ) :   0.8682

Dispersion correction           -0.015734044
FINAL SINGLE POINT ENERGY      -897.806660470305

DIPOLE MOMENT
-------------

Method             : SCF
Type of density    : Electron Density
Multiplicity       :   1
Irrep              :   0
Energy             :  -897.8072043465908791 Eh
Relativity type    :
Basis              : AO
                                X                 Y                 Z
Electronic contribution:    -10.946819053       2.224965506       0.750209588
Nuclear contribution   :     13.100317244      -2.984237808       0.012249492
                        -----------------------------------------
Total Dipole Moment    :      2.153498191      -0.759272302       0.762459080
                        -----------------------------------------
Magnitude (a.u.)       :      2.407362194
Magnitude (Debye)      :      6.119028411

Rotational constants in cm-1:             0.020461             0.007847             0.005974
Rotational constants in MHz :           613.405873           235.233998           179.092161

                             ****ORCA TERMINATED NORMALLY****
TOTAL RUN TIME: 0 days 0 hours 2 minutes 41 seconds 312 msec
