                         Program Version 6.0.0  -   RELEASE  -
|  1> ! r2scan-3c def2/J RI DEFGRID2 scfconv6 printgap
|  2> %output
|  3>     printlevel normal
|  4> end
|  5> * xyz 0 1
|  6> C -3.5101728318 -0.7090976188 0.4630806123
|  7> C -2.1518288318 -0.0317668501 0.5911520306
|  8> C -1.2346821619 -0.4025130355 -0.5839087253
|  9> C 0.0915198081 0.2891077508 -0.4187849928
| 10> O 0.398496424 1.3366650548 -0.9498032319
| 11> O 0.8772141002 -0.3668688568 0.4253013279
| 12> C 2.1723044354 0.1788239583 0.7265288898
| 13> C 3.2149447929 -0.3100128262 -0.2671994046
| 14> H -4.0021735573 -0.405681831 -0.4573846208
| 15> H -3.3966477857 -1.7899347877 0.454438494
| 16> H -4.145393165 -0.4344630129 1.3006748698
| 17> H -1.6728848839 -0.3364673979 1.5234603767
| 18> H -2.2794632498 1.0526087295 0.6142945878
| 19> H -1.6836533664 -0.0785738536 -1.5223555517
| 20> H -1.0748571021 -1.4800268772 -0.5946114511
| 21> H 2.1039719252 1.2707782977 0.7084071947
| 22> H 2.3915555797 -0.1713931152 1.7357249322
| 23> H 4.1918238325 0.0615624569 0.0243076845
| 24> H 3.2339127679 -1.3963189993 -0.2850120004
| 25> H 2.9802735063 0.0569392743 -1.263949387
| 26> *
| 27>
| 28>                          ****END OF INPUT****

CARTESIAN COORDINATES (ANGSTROEM)
---------------------------------
  C     -3.510173   -0.709098    0.463081
  C     -2.151829   -0.031767    0.591152
  C     -1.234682   -0.402513   -0.583909
  C      0.091520    0.289108   -0.418785
  O      0.398496    1.336665   -0.949803
  O      0.877214   -0.366869    0.425301
  C      2.172304    0.178824    0.726529
  C      3.214945   -0.310013   -0.267199
  H     -4.002174   -0.405682   -0.457385
  H     -3.396648   -1.789935    0.454438
  H     -4.145393   -0.434463    1.300675
  H     -1.672885   -0.336467    1.523460
  H     -2.279463    1.052609    0.614295
  H     -1.683653   -0.078574   -1.522356
  H     -1.074857   -1.480027   -0.594611
  H      2.103972    1.270778    0.708407
  H      2.391556   -0.171393    1.735725
  H      4.191824    0.061562    0.024308
  H      3.233913   -1.396319   -0.285012
  H      2.980274    0.056939   -1.263949

 Total Charge           Charge          ....    0
 Multiplicity           Mult            ....    1
 Number of Electrons    NEL             ....   64
 Basis Dimension        Dim             ....  222

ORBITAL ENERGIES
----------------

  NO   OCC          E(Eh)            E(eV)
   0   2.0000     -18.995133      -516.8838
   1   2.0000     -18.925881      -514.9994
   2   2.0000     -10.150021      -276.1961
   3   2.0000     -10.090347      -274.5723
   4   2.0000     -10.040069      -273.2042
   5   2.0000     -10.038543      -273.1626
   6   2.0000     -10.028244      -272.8824
   7   2.0000     -10.023523      -272.7539
   8   2.0000      -1.070044       -29.1174
   9   2.0000      -0.973421       -26.4881
  10   2.0000      -0.775301       -21.0970
  11   2.0000      -0.739043       -20.1104
  12   2.0000      -0.680744       -18.5240
  13   2.0000      -0.621181       -16.9032
  14   2.0000      -0.568212       -15.4618
  15   2.0000      -0.523620       -14.2484
  16   2.0000      -0.472548       -12.8587
  17   2.0000      -0.454620       -12.3708
  18   2.0000      -0.437555       -11.9065
  19   2.0000      -0.423503       -11.5241
  20   2.0000      -0.410346       -11.1661
  21   2.0000      -0.390717       -10.6320
  22   2.0000      -0.376141       -10.2353
  23   2.0000      -0.362232        -9.8568
  24   2.0000      -0.354530        -9.6472
  25   2.0000      -0.340332        -9.2609
  26   2.0000      -0.328504        -8.9391
  27   2.0000      -0.314721        -8.5640
  28   2.0000      -0.310024        -8.4362
  29   2.0000      -0.302896        -8.2422
  30   2.0000      -0.269008        -7.3201
  31   2.0000      -0.231972        -6.3123
  32   0.0000      -0.013435        -0.3656
  33   0.0000       0.076924         2.0932
  34   0.0000       0.090809         2.4710
  35   0.0000       0.105559         2.8724
  36   0.0000       0.121610         3.3092

MULLIKEN ATOMIC CHARGES
-----------------------
   0 C :   -0.474207
   1 C :   -0.232373
   2 C :   -0.346740
   3 C :    0.427882
   4 O :   -0.431966
   5 O :   -0.185707
   6 C :   -0.139288
   7 C :   -0.464646
   8 H :    0.146367
   9 H :    0.144819
  10 H :    0.150613
  11 H :    0.150549
  12 H :    0.152137
  13 H :    0.162542
  14 H :    0.155809
  15 H :    0.169046
  16 H :    0.146862
  17 H :    0.146411
  18 H :    0.151028
  19 H :    0.170863
Sum of atomic charges:    0.0000000

LOEWDIN ATOMIC CHARGES
----------------------
   0 C :   -0.419601
   1 C :   -0.287454
   2 C :   -0.229362
   3 C :    0.356754
   4 O :   -0.433228
   5 O :   -0.598090
   6 C :    0.027170
   7 C :   -0.390073
   8 H :    0.151463
   9 H :    0.150618
  10 H :    0.153072
  11 H :    0.159464
  12 H :    0.159979
  13 H :    0.176682
  14 H :    0.176267
  15 H :    0.188754
  16 H :    0.177034
  17 H :    0.158952
  18 H :    0.156900
  19 H :    0.164698

  Mayer bond orders larger than 0.100000
B(  0-C ,  1-C ) :   0.8944 B(  0-C ,  8-H ) :   0.9835 B(  0-C ,  9-H ) :   0.9858
B(  0-C , 10-H ) :   0.9718 B(  1-C ,  2-C ) :   0.9255 B(  1-C , 11-H ) :   0.9634
B(  1-C , 12-H ) :   0.9576 B(  2-C ,  3-C ) :   0.9630 B(  2-C , 13-H ) :   0.9799
B(  2-C , 14-H ) :   0.9790 B(  3-C ,  4-O ) :   1.8456 B(  3-C ,  5-O ) :   1.0272
B(  5-O ,  6-C ) :   0.8165 B(  6-C ,  7-C ) :   0.9392 B(  6-C , 15-H ) :   0.9661
B(  6-C , 16-H ) :   0.9609 B(  7-C , 17-H ) :   0.9658 B(  7-C , 18-H ) :   0.9738
B(  7-C , 19-H ) :   0.9713

Dispersion correction           -0.004963110
FINAL SINGLE POINT ENERGY      -386.235632187458

DIPOLE MOMENT
-------------

Method             : SCF
Type of density    : Electron Density
Multiplicity       :   1
Irrep              :   0
Energy             :  -386.2423260498143236 Eh
Relativity type    :
Basis              : AO
                                X                 Y                 Z
Electronic contribution:      3.185580184       2.773874760      -1.580927489
Nuclear contribution   :     -3.127258879      -3.410839220       2.091835100
                        -----------------------------------------
Total Dipole Moment    :      0.058321304      -0.636964460       0.510907611
                        -----------------------------------------
Magnitude (a.u.)       :      0.818627928
Magnitude (Debye)      :      2.080786830

Rotational constants in cm-1:             0.173018             0.030337             0.028289
Rotational constants in MHz :          5186.956268           909.468213           848.082764

                             ****ORCA TERMINATED NORMALLY****
TOTAL RUN TIME: 0 days 0 hours 0 minutes 30 seconds 305 msec
