                         Program Version 6.0.0  -   RELEASE  -
|  1> ! r2scan-3c def2/J RI DEFGRID2 scfconv6 printgap
|  2> %output
|  3>     printlevel normal
|  4> end
|  5> %cpcm
|  6>     smd true
|  7>     smdsolvent "water"
|  8> end
|  9> * xyz 0 1
| 10> C -3.5101728318 -0.7090976188 0.4630806123
| 11> C -2.1518288318 -0.0317668501 0.5911520306
| 12> C -1.2346821619 -0.4025130355 -0.5839087253
| 13> C 0.0915198081 0.2891077508 -0.4187849928
| 14> O 0.398496424 1.3366650548 -0.9498032319
| 15> O 0.8772141002 -0.3668688568 0.4253013279
| 16> C 2.1723044354 0.1788239583 0.7265288898
| 17> C 3.2149447929 -0.3100128262 -0.2671994046
| 18> H -4.0021735573 -0.405681831 -0.4573846208
| 19> H -3.3966477857 -1.7899347877 0.454438494
| 20> H -4.145393165 -0.4344630129 1.3006748698
| 21> H -1.6728848839 -0.3364673979 1.5234603767
| 22> H -2.2794632498 1.0526087295 0.6142945878
| 23> H -1.6836533664 -0.0785738536 -1.5223555517
| 24> H -1.0748571021 -1.4800268772 -0.5946114511
| 25> H 2.1039719252 1.2707782977 0.7084071947
| 26> H 2.3915555797 -0.1713931152 1.7357249322
| 27> H 4.1918238325 0.0615624569 0.0243076845
| 28> H 3.2339127679 -1.3963189993 -0.2850120004
| 29> H 2.9802735063 0.0569392743 -1.263949387
| 30> *
| 31>
| 32>                          ****END OF INPUT****

CARTESIAN COORDINATES (ANGSTROEM)
---------------------------------
  C     -3.510173   -0.709098    0.463081
  C     -2.151829   -0.031767    0.591152
  C     -1.234682   -0.402513   -0.583909
  C      0.091520    0.289108   -0.418785
  O      0.398496    1.336665   -0.949803
  O      0.877214   -0.366869    0.425301
  C      2.172304    0.178824    0.726529
  C      3.214945   -0.310013   -0.267199
  H     -4.002174   -0.405682   -0.457385
  H     -3.396648   -1.789935    0.454438
  H     -4.145393   -0.434463    1.300675
  H     -1.672885   -0.336467    1.523460
  H     -2.279463    1.052609    0.614295
  H     -1.683653   -0.078574   -1.522356
  H     -1.074857   -1.480027   -0.594611
  H      2.103972    1.270778    0.708407
  H      2.391556   -0.171393    1.735725
  H      4.191824    0.061562    0.024308
  H      3.233913   -1.396319   -0.285012
  H      2.980274    0.056939   -1.263949

 Total Charge           Charge          ....    0
 Multiplicity           Mult            ....    1
 Number of Electrons    NEL             ....   64
 Basis Dimension        Dim             ....  222

ORBITAL ENERGIES
----------------

  NO   OCC          E(Eh)            E(eV)
   0   2.0000     -19.001677      -517.0619
   1   2.0000     -18.942922      -515.4631
   2   2.0000     -10.161638      -276.5122
   3   2.0000     -10.083189      -274.3775
   4   2.0000     -10.034694      -273.0579
   5   2.0000     -10.030240      -272.9367
   6   2.0000     -10.018295      -272.6117
   7   2.0000     -10.011923      -272.4383
   8   2.0000      -1.078331       -29.3429
   9   2.0000      -0.988300       -26.8930
  10   2.0000      -0.770057       -20.9543
  11   2.0000      -0.732177       -19.9236
  12   2.0000      -0.674140       -18.3443
  13   2.0000      -0.616135       -16.7659
  14   2.0000      -0.560240       -15.2449
  15   2.0000      -0.522097       -14.2070
  16   2.0000      -0.472347       -12.8532
  17   2.0000      -0.461147       -12.5484
  18   2.0000      -0.437884       -11.9154
  19   2.0000      -0.423614       -11.5271
  20   2.0000      -0.408999       -11.1294
  21   2.0000      -0.383865       -10.4455
  22   2.0000      -0.371013       -10.0958
  23   2.0000      -0.355602        -9.6764
  24   2.0000      -0.348668        -9.4877
  25   2.0000      -0.338584        -9.2133
  26   2.0000      -0.323180        -8.7942
  27   2.0000      -0.308612        -8.3978
  28   2.0000      -0.301233        -8.1970
  29   2.0000      -0.300999        -8.1906
  30   2.0000      -0.276420        -7.5218
  31   2.0000      -0.248629        -6.7655
  32   0.0000      -0.022621        -0.6156
  33   0.0000       0.079057         2.1512
  34   0.0000       0.097891         2.6637
  35   0.0000       0.115949         3.1551
  36   0.0000       0.129343         3.5196

MULLIKEN ATOMIC CHARGES
-----------------------
   0 C :   -0.518418
   1 C :   -0.219596
   2 C :   -0.372955
   3 C :    0.467797
   4 O :   -0.517323
   5 O :   -0.203392
   6 C :   -0.143975
   7 C :   -0.490409
   8 H :    0.159071
   9 H :    0.159194
  10 H :    0.162251
  11 H :    0.158339
  12 H :    0.157324
  13 H :    0.175519
  14 H :    0.178782
  15 H :    0.171546
  16 H :    0.173438
  17 H :    0.169926
  18 H :    0.165360
  19 H :    0.167521
Sum of atomic charges:    0.0000000

LOEWDIN ATOMIC CHARGES
----------------------
   0 C :   -0.424834
   1 C :   -0.285064
   2 C :   -0.227596
   3 C :    0.365573
   4 O :   -0.494265
   5 O :   -0.599820
   6 C :    0.031986
   7 C :   -0.392985
   8 H :    0.154857
   9 H :    0.154804
  10 H :    0.156361
  11 H :    0.162058
  12 H :    0.161310
  13 H :    0.181633
  14 H :    0.186087
  15 H :    0.189604
  16 H :    0.188678
  17 H :    0.167682
  18 H :    0.161906
  19 H :    0.162025

  Mayer bond orders larger than 0.100000
B(  0-C ,  1-C ) :   0.8866 B(  0-C ,  8-H ) :   0.9812 B(  0-C ,  9-H ) :   0.9827
B(  0-C , 10-H ) :   0.9685 B(  1-C ,  2-C ) :   0.9152 B(  1-C , 11-H ) :   0.9607
B(  1-C , 12-H ) :   0.9566 B(  2-C ,  3-C ) :   0.9598 B(  2-C , 13-H ) :   0.9793
B(  2-C , 14-H ) :   0.9671 B(  3-C ,  4-O ) :   1.7735 B(  3-C ,  5-O ) :   1.0540
B(  5-O ,  6-C ) :   0.7982 B(  6-C ,  7-C ) :   0.9378 B(  6-C , 15-H ) :   0.9623
B(  6-C , 16-H ) :   0.9515 B(  7-C , 17-H ) :   0.9607 B(  7-C , 18-H ) :   0.9700
B(  7-C , 19-H ) :   0.9687

Dispersion correction           -0.004963110
FINAL SINGLE POINT ENERGY      -386.240668703182

DIPOLE MOMENT
-------------

Method             : SCF
Type of density    : Electron Density
Multiplicity       :   1
Irrep              :   0
Energy             :  -386.2473625655380829 Eh
Relativity type    :
Basis              : AO
                                X                 Y                 Z
Electronic contribution:      3.195175822       2.483603474      -1.367107065
Nuclear contribution   :     -3.127258879      -3.410839220       2.091835100
                        -----------------------------------------
Total Dipole Moment    :      0.067916942      -0.927235746       0.724728035
                        -----------------------------------------
Magnitude (a.u.)       :      1.178817019
Magnitude (Debye)      :      2.996314741

Rotational constants in cm-1:             0.173018             0.030337             0.028289
Rotational constants in MHz :          5186.956268           909.468213           848.082764

                             ****ORCA TERMINATED NORMALLY****
TOTAL RUN TIME: 0 days 0 hours 0 minutes 36 seconds 666 msec
