                         Program Version 6.0.0  -   RELEASE  -
|  1> ! pbe def2-sv(p) def2/J RI DEFGRID1 loosescf d4 GCP(DFT/SV(P)) printgap
|  2> %output
|  3>     printlevel normal
|  4> end
|  5> * xyz 0 1
|  6> C -2.643277058 -1.2274327603 -0.3410678049
|  7> C -2.5738223826 0.2203165669 0.1295991104
|  8> C -1.2563473584 0.5150212131 0.8498268712
|  9> C -0.0860584061 0.4752828456 -0.0994864604
| 10> O -0.0710801072 0.9632236706 -1.2110758592
| 11> O 0.9537946677 -0.1500079044 0.435399848
| 12> C 2.1702705326 -0.2314834722 -0.3271049883
| 13> C 3.3183069251 -0.4892290704 0.630296914
| 14> H -2.5470199324 -1.9089549531 0.5007971469
| 15> H -3.5912544942 -1.4198228682 -0.8360965397
| 16> H -1.8409274398 -1.4341884741 -1.0469559906
| 17> H -3.4018518819 0.4254039505 0.8084416806
| 18> H -2.6578909755 0.8883594558 -0.7295614897
| 19> H -1.0742779785 -0.1967891706 1.6542899855
| 20> H -1.2878322103 1.5220292153 1.271278364
| 21> H 2.0622119529 -1.0456090139 -1.0508718057
| 22> H 2.2976766058 0.7059451482 -0.8783925164
| 23> H 4.2433008399 -0.5670560281 0.068724058
| 24> H 3.4000478186 0.3251011402 1.3442870668
| 25> H 3.1477034322 -1.4144257738 1.1723856361
| 26> *
| 27>
| 28>                          ****END OF INPUT****

CARTESIAN COORDINATES (ANGSTROEM)
---------------------------------
  C     -2.643277   -1.227433   -0.341068
  C     -2.573822    0.220317    0.129599
  C     -1.256347    0.515021    0.849827
  C     -0.086058    0.475283   -0.099486
  O     -0.071080    0.963224   -1.211076
  O      0.953795   -0.150008    0.435400
  C      2.170271   -0.231483   -0.327105
  C      3.318307   -0.489229    0.630297
  H     -2.547020   -1.908955    0.500797
  H     -3.591254   -1.419823   -0.836097
  H     -1.840927   -1.434188   -1.046956
  H     -3.401852    0.425404    0.808442
  H     -2.657891    0.888359   -0.729561
  H     -1.074278   -0.196789    1.654290
  H     -1.287832    1.522029    1.271278
  H      2.062212   -1.045609   -1.050872
  H      2.297677    0.705945   -0.878393
  H      4.243301   -0.567056    0.068724
  H      3.400048    0.325101    1.344287
  H      3.147703   -1.414426    1.172386

 Total Charge           Charge          ....    0
 Multiplicity           Mult            ....    1
 Number of Electrons    NEL             ....   64
 Basis Dimension        Dim             ....  136

ORBITAL ENERGIES
----------------

  NO   OCC          E(Eh)            E(eV)
   0   2.0000     -18.797637      -511.5097
   1   2.0000     -18.730580      -509.6850
   2   2.0000     -10.004192      -272.2279
   3   2.0000      -9.946464      -270.6570
   4   2.0000      -9.896109      -269.2868
   5   2.0000      -9.889634      -269.1106
   6   2.0000      -9.888576      -269.0818
   7   2.0000      -9.875297      -268.7205
   8   2.0000      -1.004004       -27.3203
   9   2.0000      -0.907588       -24.6967
  10   2.0000      -0.726676       -19.7739
  11   2.0000      -0.699834       -19.0435
  12   2.0000      -0.636342       -17.3158
  13   2.0000      -0.583624       -15.8812
  14   2.0000      -0.530176       -14.4268
  15   2.0000      -0.501783       -13.6542
  16   2.0000      -0.451994       -12.2994
  17   2.0000      -0.441450       -12.0125
  18   2.0000      -0.412699       -11.2301
  19   2.0000      -0.405088       -11.0230
  20   2.0000      -0.387839       -10.5536
  21   2.0000      -0.364585        -9.9209
  22   2.0000      -0.362325        -9.8594
  23   2.0000      -0.350346        -9.5334
  24   2.0000      -0.347302        -9.4506
  25   2.0000      -0.322380        -8.7724
  26   2.0000      -0.306687        -8.3454
  27   2.0000      -0.296523        -8.0688
  28   2.0000      -0.295426        -8.0389
  29   2.0000      -0.289883        -7.8881
  30   2.0000      -0.256062        -6.9678
  31   2.0000      -0.216886        -5.9018
  32   0.0000      -0.019245        -0.5237
  33   0.0000       0.038628         1.0511
  34   0.0000       0.051323         1.3966
  35   0.0000       0.075061         2.0425
  36   0.0000       0.081212         2.2099

MULLIKEN ATOMIC CHARGES
-----------------------
   0 C :   -0.290684
   1 C :   -0.189111
   2 C :   -0.133587
   3 C :    0.092040
   4 O :   -0.213034
   5 O :   -0.236979
   6 C :   -0.030622
   7 C :   -0.275387
   8 H :    0.097364
   9 H :    0.107090
  10 H :    0.115420
  11 H :    0.088347
  12 H :    0.107559
  13 H :    0.093825
  14 H :    0.114827
  15 H :    0.103410
  16 H :    0.110466
  17 H :    0.111004
  18 H :    0.114039
  19 H :    0.114015
Sum of atomic charges:    0.0000000

LOEWDIN ATOMIC CHARGES
----------------------
   0 C :   -0.342412
   1 C :   -0.229393
   2 C :   -0.248552
   3 C :    0.035101
   4 O :   -0.172215
   5 O :   -0.069206
   6 C :   -0.110244
   7 C :   -0.350649
   8 H :    0.116234
   9 H :    0.121444
  10 H :    0.120743
  11 H :    0.117385
  12 H :    0.125266
  13 H :    0.127223
  14 H :    0.143729
  15 H :    0.115668
  16 H :    0.117798
  17 H :    0.129954
  18 H :    0.126139
  19 H :    0.125989

  Mayer bond orders larger than 0.100000
B(  0-C ,  1-C ) :   1.1551 B(  0-C ,  8-H ) :   0.9538 B(  0-C ,  9-H ) :   0.9526
B(  0-C , 10-H ) :   0.9506 B(  1-C ,  2-C ) :   1.1140 B(  1-C , 11-H ) :   0.9270
B(  1-C , 12-H ) :   0.9171 B(  2-C ,  3-C ) :   1.0216 B(  2-C , 13-H ) :   0.9119
B(  2-C , 14-H ) :   0.8885 B(  3-C ,  4-O ) :   2.0424 B(  3-C ,  5-O ) :   1.2194
B(  5-O ,  6-C ) :   0.9119 B(  6-C ,  7-C ) :   1.1544 B(  6-C , 15-H ) :   0.9358
B(  6-C , 16-H ) :   0.9217 B(  7-C , 17-H ) :   0.9448 B(  7-C , 18-H ) :   0.9519
B(  7-C , 19-H ) :   0.9487

Dispersion correction           -0.014789575
FINAL SINGLE POINT ENERGY      -385.458355602006

DIPOLE MOMENT
-------------

Method             : SCF
Type of density    : Electron Density
Multiplicity       :   1
Irrep              :   0
Energy             :  -385.5334053129221843 Eh
Relativity type    :
Basis              : AO
                                X                 Y                 Z
Electronic contribution:      1.484029637       3.522759102      -1.573898325
Nuclear contribution   :     -1.159726532      -3.853195216       2.125947350
                        -----------------------------------------
Total Dipole Moment    :      0.324303105      -0.330436114       0.552049025
                        -----------------------------------------
Magnitude (a.u.)       :      0.720498894
Magnitude (Debye)      :      1.831362647

Rotational constants in cm-1:             0.149276             0.031954             0.030773
Rotational constants in MHz :          4475.178163           957.945125           922.551427

                             ****ORCA TERMINATED NORMALLY****
TOTAL RUN TIME: 0 days 0 hours 0 minutes 10 seconds 641 msec
