                         Program Version 6.0.0  -   RELEASE  -
|  1> ! r2scan-3c def2/J RI DEFGRID2 scfconv6 printgap
|  2> %output
|  3>     printlevel normal
|  4> end
|  5> %cpcm
|  6>     smd true
|  7>     smdsolvent "water"
|  8> end
|  9> * xyz 0 1
| 10> C 2.2624831775 1.0949695926 0.7658233307
| 11> C 1.3781335633 0.4047337207 -0.2600140019
| 12> C 2.1609016255 -0.560897121 -1.1346403144
| 13> S 0.0276757968 -0.5078204514 0.6171228667
| 14> C -1.4798714394 0.3186086992 -0.0590868257
| 15> C -1.7468658548 -0.1394061843 -1.4828650105
| 16> C -2.6394374944 -0.0061574186 0.8686680072
| 17> H 1.6739963434 1.7652156856 1.3880115538
| 18> H 2.7352830416 0.3561493891 1.4087923138
| 19> H 3.0366242787 1.6706274068 0.2629165715
| 20> H 0.8712009761 1.1490320838 -0.8777411153
| 21> H 1.5019060251 -1.0612918558 -1.8401643807
| 22> H 2.6398396827 -1.3177475172 -0.5176474355
| 23> H 2.9269667818 -0.0233113043 -1.6894230446
| 24> H -1.2674223428 1.3910333068 -0.0305406812
| 25> H -2.6348253972 0.3563538321 -1.8694894044
| 26> H -0.9090324615 0.0965068445 -2.1354811075
| 27> H -1.908451532 -1.2148601761 -1.5019773371
| 28> H -3.5401094143 0.4975328311 0.525843521
| 29> H -2.4173306841 0.3169279127 1.8826745731
| 30> H -2.8184753961 -1.078826992 0.8814587656
| 31> *
| 32>
| 33>                          ****END OF INPUT****

CARTESIAN COORDINATES (ANGSTROEM)
---------------------------------
  C      2.262483    1.094970    0.765823
  C      1.378134    0.404734   -0.260014
  C      2.160902   -0.560897   -1.134640
  S      0.027676   -0.507820    0.617123
  C     -1.479871    0.318609   -0.059087
  C     -1.746866   -0.139406   -1.482865
  C     -2.639437   -0.006157    0.868668
  H      1.673996    1.765216    1.388012
  H      2.735283    0.356149    1.408792
  H      3.036624    1.670627    0.262917
  H      0.871201    1.149032   -0.877741
  H      1.501906   -1.061292   -1.840164
  H      2.639840   -1.317748   -0.517647
  H      2.926967   -0.023311   -1.689423
  H     -1.267422    1.391033   -0.030541
  H     -2.634825    0.356354   -1.869489
  H     -0.909032    0.096507   -2.135481
  H     -1.908452   -1.214860   -1.501977
  H     -3.540109    0.497533    0.525844
  H     -2.417331    0.316928    1.882675
  H     -2.818475   -1.078827    0.881459

 Total Charge           Charge          ....    0
 Multiplicity           Mult            ....    1
 Number of Electrons    NEL             ....   66
 Basis Dimension        Dim             ....  211

ORBITAL ENERGIES
----------------

  NO   OCC          E(Eh)            E(eV)
   0   2.0000     -88.533082     -2409.1076
   1   2.0000     -10.058794      -273.7137
   2   2.0000     -10.057399      -273.6758
   3   2.0000     -10.015292      -272.5300
   4   2.0000     -10.012718      -272.4599
   5   2.0000     -10.012450      -272.4526
   6   2.0000     -10.012174      -272.4451
   7   2.0000      -7.827503      -212.9972
   8   2.0000      -5.774629      -157.1356
   9   2.0000      -5.771329      -157.0458
  10   2.0000      -5.764457      -156.8589
  11   2.0000      -0.785807       -21.3829
  12   2.0000      -0.751516       -20.4498
  13   2.0000      -0.650442       -17.6994
  14   2.0000      -0.647661       -17.6237
  15   2.0000      -0.643145       -17.5009
  16   2.0000      -0.539868       -14.6905
  17   2.0000      -0.514132       -13.9902
  18   2.0000      -0.435767       -11.8578
  19   2.0000      -0.422459       -11.4957
  20   2.0000      -0.400539       -10.8992
  21   2.0000      -0.383237       -10.4284
  22   2.0000      -0.373839       -10.1727
  23   2.0000      -0.368021       -10.0144
  24   2.0000      -0.350561        -9.5393
  25   2.0000      -0.349491        -9.5101
  26   2.0000      -0.319846        -8.7035
  27   2.0000      -0.313153        -8.5213
  28   2.0000      -0.308383        -8.3915
  29   2.0000      -0.303582        -8.2609
  30   2.0000      -0.283537        -7.7154
  31   2.0000      -0.261627        -7.1192
  32   2.0000      -0.186643        -5.0788
  33   0.0000       0.016764         0.4562
  34   0.0000       0.053511         1.4561
  35   0.0000       0.087414         2.3787
  36   0.0000       0.123927         3.3722
  37   0.0000       0.129475         3.5232

MULLIKEN ATOMIC CHARGES
-----------------------
   0 C :   -0.513244
   1 C :    0.023992
   2 C :   -0.514997
   3 S :   -0.252060
   4 C :   -0.033697
   5 C :   -0.494676
   6 C :   -0.514182
   7 H :    0.161725
   8 H :    0.163522
   9 H :    0.158992
  10 H :    0.174082
  11 H :    0.162130
  12 H :    0.162041
  13 H :    0.159207
  14 H :    0.178119
  15 H :    0.156378
  16 H :    0.162115
  17 H :    0.165151
  18 H :    0.165340
  19 H :    0.164399
  20 H :    0.165663
Sum of atomic charges:    0.0000000

LOEWDIN ATOMIC CHARGES
----------------------
   0 C :   -0.428499
   1 C :   -0.280074
   2 C :   -0.429455
   3 S :    0.023501
   4 C :   -0.281955
   5 C :   -0.426391
   6 C :   -0.426084
   7 H :    0.158633
   8 H :    0.158576
   9 H :    0.157808
  10 H :    0.174238
  11 H :    0.158130
  12 H :    0.158224
  13 H :    0.157762
  14 H :    0.168084
  15 H :    0.157836
  16 H :    0.157938
  17 H :    0.159339
  18 H :    0.162599
  19 H :    0.159971
  20 H :    0.159817

  Mayer bond orders larger than 0.100000
B(  0-C ,  1-C ) :   0.9092 B(  0-C ,  7-H ) :   0.9695 B(  0-C ,  8-H ) :   0.9806
B(  0-C ,  9-H ) :   0.9647 B(  1-C ,  2-C ) :   0.9079 B(  1-C ,  3-S ) :   0.8207
B(  1-C , 10-H ) :   0.9243 B(  2-C , 11-H ) :   0.9677 B(  2-C , 12-H ) :   0.9784
B(  2-C , 13-H ) :   0.9646 B(  3-S ,  4-C ) :   0.9180 B(  4-C ,  5-C ) :   0.8891
B(  4-C ,  6-C ) :   0.9088 B(  4-C , 14-H ) :   0.9404 B(  5-C , 15-H ) :   0.9598
B(  5-C , 16-H ) :   0.9643 B(  5-C , 17-H ) :   0.9814 B(  6-C , 18-H ) :   0.9614
B(  6-C , 19-H ) :   0.9690 B(  6-C , 20-H ) :   0.9769

Dispersion correction           -0.006092130
FINAL SINGLE POINT ENERGY      -635.157820345629

DIPOLE MOMENT
-------------

Method             : SCF
Type of density    : Electron Density
Multiplicity       :   1
Irrep              :   0
Energy             :  -635.1646733215087579 Eh
Relativity type    :
Basis              : AO
                                X                 Y                 Z
Electronic contribution:     -0.005723847      -1.945458795       3.182263213
Nuclear contribution   :     -0.103839985       2.738515322      -3.876320867
                        -----------------------------------------
Total Dipole Moment    :     -0.109563832       0.793056527      -0.694057654
                        -----------------------------------------
Magnitude (a.u.)       :      1.059555999
Magnitude (Debye)      :      2.693177318

Rotational constants in cm-1:             0.119862             0.041461             0.036002
Rotational constants in MHz :          3593.379148          1242.972131          1079.304003

                             ****ORCA TERMINATED NORMALLY****
TOTAL RUN TIME: 0 days 0 hours 0 minutes 29 seconds 309 msec
