                         Program Version 6.0.0  -   RELEASE  -
|  1> ! pbe def2-sv(p) def2/J RI DEFGRID1 loosescf d4 GCP(DFT/SV(P)) printgap
|  2> %output
|  3>     printlevel normal
|  4> end
|  5> * xyz 0 1
|  6> C 2.1441732067 -0.26523572 0.5807757859
|  7> C 1.3687483928 0.4575213477 -0.5157560871
|  8> C -0.0413210177 -0.0944056532 -0.7230683682
|  9> C -0.9752327768 0.1636678234 0.4583105274
| 10> N -2.3449898116 -0.1806520202 0.0919439574
| 11> H 2.1830396481 -1.3332020741 0.3777069677
| 12> H 3.1629141089 0.111352816 0.6314129097
| 13> H 1.6792976181 -0.1149061996 1.5515651908
| 14> H 1.3062609732 1.5210362223 -0.2759447617
| 15> H 1.9167743835 0.3615628117 -1.4554739746
| 16> H -0.4854492055 0.3732308368 -1.6032856182
| 17> H 0.0130978938 -1.1698648868 -0.9092213918
| 18> H -0.9615296061 1.2294948104 0.7055198692
| 19> H -0.6203029881 -0.3926820866 1.3413533239
| 20> H -2.9612278064 -0.0255655845 0.8818357308
| 21> H -2.3936101242 -1.1667786707 -0.1429547069
| 22> *
| 23>
| 24>                          ****END OF INPUT****

CARTESIAN COORDINATES (ANGSTROEM)
---------------------------------
  C      2.144173   -0.265236    0.580776
  C      1.368748    0.457521   -0.515756
  C     -0.041321   -0.094406   -0.723068
  C     -0.975233    0.163668    0.458311
  N     -2.344990   -0.180652    0.091944
  H      2.183040   -1.333202    0.377707
  H      3.162914    0.111353    0.631413
  H      1.679298   -0.114906    1.551565
  H      1.306261    1.521036   -0.275945
  H      1.916774    0.361563   -1.455474
  H     -0.485449    0.373231   -1.603286
  H      0.013098   -1.169865   -0.909221
  H     -0.961530    1.229495    0.705520
  H     -0.620303   -0.392682    1.341353
  H     -2.961228   -0.025566    0.881836
  H     -2.393610   -1.166779   -0.142955

 Total Charge           Charge          ....    0
 Multiplicity           Mult            ....    1
 Number of Electrons    NEL             ....   42
 Basis Dimension        Dim             ....   92

ORBITAL ENERGIES
----------------

  NO   OCC          E(Eh)            E(eV)
   0   2.0000     -13.952521      -379.6674
   1   2.0000      -9.902237      -269.4536
   2   2.0000      -9.880930      -268.8738
   3   2.0000      -9.876237      -268.7461
   4   2.0000      -9.870994      -268.6034
   5   2.0000      -0.789370       -21.4798
   6   2.0000      -0.705361       -19.1938
   7   2.0000      -0.625619       -17.0240
   8   2.0000      -0.555830       -15.1249
   9   2.0000      -0.504853       -13.7377
  10   2.0000      -0.427463       -11.6319
  11   2.0000      -0.418510       -11.3882
  12   2.0000      -0.406649       -11.0655
  13   2.0000      -0.361885        -9.8474
  14   2.0000      -0.358837        -9.7644
  15   2.0000      -0.337844        -9.1932
  16   2.0000      -0.310524        -8.4498
  17   2.0000      -0.286638        -7.7998
  18   2.0000      -0.283503        -7.7145
  19   2.0000      -0.278537        -7.5794
  20   2.0000      -0.177402        -4.8273
  21   0.0000       0.037164         1.0113
  22   0.0000       0.046582         1.2676
  23   0.0000       0.067605         1.8396
  24   0.0000       0.075984         2.0676
  25   0.0000       0.101265         2.7556

MULLIKEN ATOMIC CHARGES
-----------------------
   0 C :   -0.293033
   1 C :   -0.169610
   2 C :   -0.175290
   3 C :   -0.092731
   4 N :   -0.452991
   5 H :    0.095661
   6 H :    0.101684
   7 H :    0.107769
   8 H :    0.084344
   9 H :    0.085470
  10 H :    0.090634
  11 H :    0.074117
  12 H :    0.075712
  13 H :    0.070476
  14 H :    0.199329
  15 H :    0.198460
Sum of atomic charges:   -0.0000000

LOEWDIN ATOMIC CHARGES
----------------------
   0 C :   -0.344733
   1 C :   -0.232647
   2 C :   -0.235744
   3 C :   -0.177819
   4 N :   -0.417985
   5 H :    0.115993
   6 H :    0.118684
   7 H :    0.115078
   8 H :    0.114391
   9 H :    0.115966
  10 H :    0.119789
  11 H :    0.109259
  12 H :    0.109079
  13 H :    0.088674
  14 H :    0.202086
  15 H :    0.199928

  Mayer bond orders larger than 0.100000
B(  0-C ,  1-C ) :   1.1467 B(  0-C ,  5-H ) :   0.9555 B(  0-C ,  6-H ) :   0.9512
B(  0-C ,  7-H ) :   0.9523 B(  1-C ,  2-C ) :   1.1233 B(  1-C ,  8-H ) :   0.9267
B(  1-C ,  9-H ) :   0.9282 B(  2-C ,  3-C ) :   1.1345 B(  2-C , 10-H ) :   0.9167
B(  2-C , 11-H ) :   0.9224 B(  3-C ,  4-N ) :   1.1073 B(  3-C , 12-H ) :   0.9258
B(  3-C , 13-H ) :   0.9178 B(  4-N , 14-H ) :   0.9053 B(  4-N , 15-H ) :   0.9042

Dispersion correction           -0.010105127
FINAL SINGLE POINT ENERGY      -213.243972043524

DIPOLE MOMENT
-------------

Method             : SCF
Type of density    : Electron Density
Multiplicity       :   1
Irrep              :   0
Energy             :  -213.3042068703148288 Eh
Relativity type    :
Basis              : AO
                                X                 Y                 Z
Electronic contribution:     -2.589898483       0.263398102      -0.642373527
Nuclear contribution   :      2.650877551      -0.569815583       1.034839045
                        -----------------------------------------
Total Dipole Moment    :      0.060979068      -0.306417481       0.392465519
                        -----------------------------------------
Magnitude (a.u.)       :      0.501636625
Magnitude (Debye)      :      1.275058969

Rotational constants in cm-1:             0.413717             0.077410             0.071886
Rotational constants in MHz :         12402.930076          2320.698217          2155.100459

                             ****ORCA TERMINATED NORMALLY****
TOTAL RUN TIME: 0 days 0 hours 0 minutes 7 seconds 699 msec
