                         Program Version 6.0.0  -   RELEASE  -
|  1> ! pbe def2-sv(p) def2/J RI DEFGRID1 loosescf d4 GCP(DFT/SV(P)) printgap
|  2> %output
|  3>     printlevel normal
|  4> end
|  5> * xyz 0 1
|  6> C -3.6769398341 -0.8443407944 -0.1330788265
|  7> C -2.643382284 0.1011645389 0.4674903173
|  8> C -1.2521833114 -0.1565100162 -0.1066599775
|  9> C -0.2076645828 0.7926787737 0.4989538233
| 10> C 1.1312570207 0.5086151323 -0.1254970772
| 11> O 1.5537286622 1.0389636268 -1.1323466172
| 12> O 1.7828675534 -0.4359793103 0.540389315
| 13> C 3.0539480286 -0.8804384281 0.0556433895
| 14> H -4.6603558186 -0.6476809341 0.2855226163
| 15> H -3.7297707536 -0.7154755221 -1.211636034
| 16> H -3.4142198236 -1.878721373 0.0754774033
| 17> H -2.9323863197 1.1335791318 0.2628818932
| 18> H -2.6156800355 -0.0302985633 1.5505785514
| 19> H -1.2712853412 -0.0197144495 -1.1902668929
| 20> H -0.9580416619 -1.1878905367 0.0983245393
| 21> H -0.1427222423 0.6320281256 1.5741209614
| 22> H -0.4813892061 1.8256472648 0.2864150715
| 23> H 3.8258002693 -0.5130767646 0.7303480613
| 24> H 3.2214693183 -0.4963520732 -0.9510875851
| 25> H 3.0341512939 -1.9676565761 0.058441868
| 26> *
| 27>
| 28>                          ****END OF INPUT****

CARTESIAN COORDINATES (ANGSTROEM)
---------------------------------
  C     -3.676940   -0.844341   -0.133079
  C     -2.643382    0.101165    0.467490
  C     -1.252183   -0.156510   -0.106660
  C     -0.207665    0.792679    0.498954
  C      1.131257    0.508615   -0.125497
  O      1.553729    1.038964   -1.132347
  O      1.782868   -0.435979    0.540389
  C      3.053948   -0.880438    0.055643
  H     -4.660356   -0.647681    0.285523
  H     -3.729771   -0.715476   -1.211636
  H     -3.414220   -1.878721    0.075477
  H     -2.932386    1.133579    0.262882
  H     -2.615680   -0.030299    1.550579
  H     -1.271285   -0.019714   -1.190267
  H     -0.958042   -1.187891    0.098325
  H     -0.142722    0.632028    1.574121
  H     -0.481389    1.825647    0.286415
  H      3.825800   -0.513077    0.730348
  H      3.221469   -0.496352   -0.951088
  H      3.034151   -1.967657    0.058442

 Total Charge           Charge          ....    0
 Multiplicity           Mult            ....    1
 Number of Electrons    NEL             ....   64
 Basis Dimension        Dim             ....  136

ORBITAL ENERGIES
----------------

  NO   OCC          E(Eh)            E(eV)
   0   2.0000     -18.798188      -511.5247
   1   2.0000     -18.728840      -509.6376
   2   2.0000     -10.003370      -272.2055
   3   2.0000      -9.939128      -270.4574
   4   2.0000      -9.895906      -269.2813
   5   2.0000      -9.893962      -269.2284
   6   2.0000      -9.888835      -269.0889
   7   2.0000      -9.877609      -268.7834
   8   2.0000      -1.003146       -27.2970
   9   2.0000      -0.906398       -24.6644
  10   2.0000      -0.733506       -19.9597
  11   2.0000      -0.687496       -18.7077
  12   2.0000      -0.646210       -17.5843
  13   2.0000      -0.578820       -15.7505
  14   2.0000      -0.523533       -14.2460
  15   2.0000      -0.505724       -13.7614
  16   2.0000      -0.444251       -12.0887
  17   2.0000      -0.435647       -11.8545
  18   2.0000      -0.432444       -11.7674
  19   2.0000      -0.407235       -11.0814
  20   2.0000      -0.391757       -10.6602
  21   2.0000      -0.371081       -10.0976
  22   2.0000      -0.368855       -10.0370
  23   2.0000      -0.354693        -9.6517
  24   2.0000      -0.333003        -9.0615
  25   2.0000      -0.318192        -8.6584
  26   2.0000      -0.303112        -8.2481
  27   2.0000      -0.299293        -8.1442
  28   2.0000      -0.292025        -7.9464
  29   2.0000      -0.287163        -7.8141
  30   2.0000      -0.253204        -6.8900
  31   2.0000      -0.215270        -5.8578
  32   0.0000      -0.016236        -0.4418
  33   0.0000       0.037808         1.0288
  34   0.0000       0.054614         1.4861
  35   0.0000       0.066092         1.7985
  36   0.0000       0.070255         1.9117

MULLIKEN ATOMIC CHARGES
-----------------------
   0 C :   -0.257491
   1 C :   -0.162873
   2 C :   -0.241238
   3 C :   -0.089822
   4 C :    0.104281
   5 O :   -0.207519
   6 O :   -0.246060
   7 C :   -0.127806
   8 H :    0.103876
   9 H :    0.100096
  10 H :    0.097980
  11 H :    0.086781
  12 H :    0.084472
  13 H :    0.099336
  14 H :    0.091953
  15 H :    0.092233
  16 H :    0.097578
  17 H :    0.121302
  18 H :    0.132270
  19 H :    0.120650
Sum of atomic charges:   -0.0000000

LOEWDIN ATOMIC CHARGES
----------------------
   0 C :   -0.338866
   1 C :   -0.233087
   2 C :   -0.217820
   3 C :   -0.239387
   4 C :    0.035741
   5 O :   -0.173732
   6 O :   -0.076186
   7 C :   -0.208971
   8 H :    0.119834
   9 H :    0.118296
  10 H :    0.117349
  11 H :    0.116099
  12 H :    0.114976
  13 H :    0.121427
  14 H :    0.117483
  15 H :    0.129348
  16 H :    0.133977
  17 H :    0.119829
  18 H :    0.123854
  19 H :    0.119834

  Mayer bond orders larger than 0.100000
B(  0-C ,  1-C ) :   1.1585 B(  0-C ,  8-H ) :   0.9525 B(  0-C ,  9-H ) :   0.9543
B(  0-C , 10-H ) :   0.9545 B(  1-C ,  2-C ) :   1.1334 B(  1-C , 11-H ) :   0.9247
B(  1-C , 12-H ) :   0.9246 B(  2-C ,  3-C ) :   1.1289 B(  2-C , 13-H ) :   0.9223
B(  2-C , 14-H ) :   0.9228 B(  3-C ,  4-C ) :   1.0134 B(  3-C , 15-H ) :   0.8978
B(  3-C , 16-H ) :   0.9005 B(  4-C ,  5-O ) :   2.0700 B(  4-C ,  6-O ) :   1.2042
B(  6-O ,  7-C ) :   0.9367 B(  7-C , 17-H ) :   0.9612 B(  7-C , 18-H ) :   0.9291
B(  7-C , 19-H ) :   0.9608

Dispersion correction           -0.014511455
FINAL SINGLE POINT ENERGY      -385.451608800990

DIPOLE MOMENT
-------------

Method             : SCF
Type of density    : Electron Density
Multiplicity       :   1
Irrep              :   0
Energy             :  -385.5267490474145688 Eh
Relativity type    :
Basis              : AO
                                X                 Y                 Z
Electronic contribution:      9.372246336       3.084286667      -0.938267400
Nuclear contribution   :     -9.448927766      -3.617647551       1.463318914
                        -----------------------------------------
Total Dipole Moment    :     -0.076681430      -0.533360884       0.525051514
                        -----------------------------------------
Magnitude (a.u.)       :      0.752351624
Magnitude (Debye)      :      1.912325854

Rotational constants in cm-1:             0.162572             0.027256             0.025734
Rotational constants in MHz :          4873.772767           817.116083           771.492776

                             ****ORCA TERMINATED NORMALLY****
TOTAL RUN TIME: 0 days 0 hours 0 minutes 10 seconds 753 msec
