                         Program Version 6.0.0  -   RELEASE  -
|  1> ! pbe def2-sv(p) def2/J RI DEFGRID1 loosescf d4 GCP(DFT/SV(P)) printgap
|  2> %output
|  3>     printlevel normal
|  4> end
|  5> * xyz 0 1
|  6> C -2.4564661953 -1.3379246629 -0.307926238
|  7> C -2.5523934029 0.1306805088 0.0873361384
|  8> C -1.2977030243 0.5965242401 0.8321264491
|  9> C -0.0973827095 0.59375386 -0.0790643669
| 10> O -0.0498968937 1.119804367 -1.1725460295
| 11> O 0.9264484998 -0.0557456341 0.456576482
| 12> C 2.1485806813 -0.1235057817 -0.2976547922
| 13> C 3.1877715707 -0.8332998491 0.5480082454
| 14> H -1.6167686482 -1.4946578482 -0.9826220076
| 15> H -2.3133300389 -1.9620685797 0.57087571
| 16> H -3.3644832416 -1.6543627607 -0.8140635683
| 17> H -3.4200807501 0.2818640915 0.7297787458
| 18> H -2.6742323343 0.7442423604 -0.8072790952
| 19> H -1.0860330569 -0.0442493835 1.6872038971
| 20> H -1.4402695113 1.6221850341 1.1772427065
| 21> H 1.9483938391 -0.660135917 -1.2309897939
| 22> H 2.4553035663 0.8965356847 -0.5515586815
| 23> H 2.8457504715 -1.8342054075 0.7937383279
| 24> H 4.1185888872 -0.8975950369 -0.005631548
| 25> H 3.3551385123 -0.2841179528 1.4697839916
| 26> *
| 27>
| 28>                          ****END OF INPUT****

CARTESIAN COORDINATES (ANGSTROEM)
---------------------------------
  C     -2.456466   -1.337925   -0.307926
  C     -2.552393    0.130681    0.087336
  C     -1.297703    0.596524    0.832126
  C     -0.097383    0.593754   -0.079064
  O     -0.049897    1.119804   -1.172546
  O      0.926448   -0.055746    0.456576
  C      2.148581   -0.123506   -0.297655
  C      3.187772   -0.833300    0.548008
  H     -1.616769   -1.494658   -0.982622
  H     -2.313330   -1.962069    0.570876
  H     -3.364483   -1.654363   -0.814064
  H     -3.420081    0.281864    0.729779
  H     -2.674232    0.744242   -0.807279
  H     -1.086033   -0.044249    1.687204
  H     -1.440270    1.622185    1.177243
  H      1.948394   -0.660136   -1.230990
  H      2.455304    0.896536   -0.551559
  H      2.845750   -1.834205    0.793738
  H      4.118589   -0.897595   -0.005632
  H      3.355139   -0.284118    1.469784

 Total Charge           Charge          ....    0
 Multiplicity           Mult            ....    1
 Number of Electrons    NEL             ....   64
 Basis Dimension        Dim             ....  136

ORBITAL ENERGIES
----------------

  NO   OCC          E(Eh)            E(eV)
   0   2.0000     -18.797905      -511.5170
   1   2.0000     -18.729974      -509.6685
   2   2.0000     -10.003370      -272.2055
   3   2.0000      -9.946931      -270.6697
   4   2.0000      -9.895756      -269.2772
   5   2.0000      -9.890095      -269.1232
   6   2.0000      -9.889622      -269.1103
   7   2.0000      -9.876570      -268.7551
   8   2.0000      -1.004415       -27.3315
   9   2.0000      -0.906825       -24.6760
  10   2.0000      -0.727350       -19.7922
  11   2.0000      -0.700051       -19.0494
  12   2.0000      -0.636398       -17.3173
  13   2.0000      -0.583332       -15.8733
  14   2.0000      -0.530861       -14.4455
  15   2.0000      -0.502895       -13.6845
  16   2.0000      -0.450754       -12.2656
  17   2.0000      -0.442848       -12.0505
  18   2.0000      -0.413281       -11.2459
  19   2.0000      -0.404820       -11.0157
  20   2.0000      -0.387634       -10.5481
  21   2.0000      -0.363499        -9.8913
  22   2.0000      -0.362402        -9.8615
  23   2.0000      -0.351855        -9.5745
  24   2.0000      -0.346953        -9.4411
  25   2.0000      -0.321493        -8.7483
  26   2.0000      -0.309035        -8.4093
  27   2.0000      -0.296736        -8.0746
  28   2.0000      -0.295857        -8.0507
  29   2.0000      -0.291435        -7.9304
  30   2.0000      -0.256285        -6.9739
  31   2.0000      -0.215887        -5.8746
  32   0.0000      -0.019397        -0.5278
  33   0.0000       0.036935         1.0050
  34   0.0000       0.052044         1.4162
  35   0.0000       0.074682         2.0322
  36   0.0000       0.078602         2.1389

MULLIKEN ATOMIC CHARGES
-----------------------
   0 C :   -0.289434
   1 C :   -0.198101
   2 C :   -0.121798
   3 C :    0.089084
   4 O :   -0.216337
   5 O :   -0.236271
   6 C :   -0.030929
   7 C :   -0.271123
   8 H :    0.115768
   9 H :    0.098329
  10 H :    0.107699
  11 H :    0.090714
  12 H :    0.108364
  13 H :    0.091881
  14 H :    0.113106
  15 H :    0.104086
  16 H :    0.105475
  17 H :    0.114289
  18 H :    0.110785
  19 H :    0.114414
Sum of atomic charges:   -0.0000000

LOEWDIN ATOMIC CHARGES
----------------------
   0 C :   -0.342396
   1 C :   -0.227811
   2 C :   -0.247394
   3 C :    0.034186
   4 O :   -0.173314
   5 O :   -0.068743
   6 C :   -0.108997
   7 C :   -0.350614
   8 H :    0.120376
   9 H :    0.116943
  10 H :    0.121624
  11 H :    0.117722
  12 H :    0.124980
  13 H :    0.126267
  14 H :    0.142480
  15 H :    0.115550
  16 H :    0.116317
  17 H :    0.126335
  18 H :    0.130096
  19 H :    0.126390

  Mayer bond orders larger than 0.100000
B(  0-C ,  1-C ) :   1.1547 B(  0-C ,  8-H ) :   0.9495 B(  0-C ,  9-H ) :   0.9537
B(  0-C , 10-H ) :   0.9522 B(  1-C ,  2-C ) :   1.1125 B(  1-C , 11-H ) :   0.9280
B(  1-C , 12-H ) :   0.9189 B(  2-C ,  3-C ) :   1.0257 B(  2-C , 13-H ) :   0.9111
B(  2-C , 14-H ) :   0.8911 B(  3-C ,  4-O ) :   2.0380 B(  3-C ,  5-O ) :   1.2195
B(  5-O ,  6-C ) :   0.9117 B(  6-C ,  7-C ) :   1.1499 B(  6-C , 15-H ) :   0.9326
B(  6-C , 16-H ) :   0.9305 B(  7-C , 17-H ) :   0.9497 B(  7-C , 18-H ) :   0.9447
B(  7-C , 19-H ) :   0.9503

Dispersion correction           -0.014857644
FINAL SINGLE POINT ENERGY      -385.458320998844

DIPOLE MOMENT
-------------

Method             : SCF
Type of density    : Electron Density
Multiplicity       :   1
Irrep              :   0
Energy             :  -385.5332824068884179 Eh
Relativity type    :
Basis              : AO
                                X                 Y                 Z
Electronic contribution:      1.387902083       4.549849772      -1.366772098
Nuclear contribution   :     -1.105317977      -4.943901865       1.899939969
                        -----------------------------------------
Total Dipole Moment    :      0.282584106      -0.394052093       0.533167871
                        -----------------------------------------
Magnitude (a.u.)       :      0.720693283
Magnitude (Debye)      :      1.831856744

Rotational constants in cm-1:             0.132695             0.033942             0.031570
Rotational constants in MHz :          3978.082935          1017.541286           946.454079

                             ****ORCA TERMINATED NORMALLY****
TOTAL RUN TIME: 0 days 0 hours 0 minutes 10 seconds 764 msec
