                         Program Version 6.0.0  -   RELEASE  -
|  1> ! pbe def2-sv(p) def2/J RI DEFGRID1 loosescf d4 GCP(DFT/SV(P)) printgap
|  2> %output
|  3>     printlevel normal
|  4> end
|  5> * xyz 0 1
|  6> C -3.4989773855 -0.9161830141 0.1805753361
|  7> C -2.1642936042 -0.28054992 0.5468689896
|  8> C -1.2403605634 -0.1823000072 -0.673828697
|  9> C 0.0313208011 0.5344861979 -0.3042357777
| 10> O 0.0872873325 1.684680191 0.0822162859
| 11> O 1.0893935862 -0.251819457 -0.4315929296
| 12> C 2.3905364511 0.2547561391 -0.0838385094
| 13> C 3.1666928026 -0.8353358165 0.6336804576
| 14> H -4.0116552355 -0.3207691448 -0.5705326447
| 15> H -3.34734182 -1.9168985294 -0.2156784125
| 16> H -4.1345631556 -0.9848245114 1.0590862986
| 17> H -1.6740688414 -0.874460242 1.3208027766
| 18> H -2.3234816326 0.7233985597 0.9455020044
| 19> H -1.740297702 0.3949349755 -1.4532051474
| 20> H -0.9914231025 -1.1726082311 -1.0523521738
| 21> H 2.8852482013 0.5424577541 -1.015964
| 22> H 2.2606033562 1.1438091163 0.5411881038
| 23> H 2.6665350608 -1.1087975256 1.5586303925
| 24> H 3.2395631013 -1.7149401345 0.0009380435
| 25> H 4.1638921723 -0.4734993146 0.8618046645
| 26> *
| 27>
| 28>                          ****END OF INPUT****

CARTESIAN COORDINATES (ANGSTROEM)
---------------------------------
  C     -3.498977   -0.916183    0.180575
  C     -2.164294   -0.280550    0.546869
  C     -1.240361   -0.182300   -0.673829
  C      0.031321    0.534486   -0.304236
  O      0.087287    1.684680    0.082216
  O      1.089394   -0.251819   -0.431593
  C      2.390536    0.254756   -0.083839
  C      3.166693   -0.835336    0.633680
  H     -4.011655   -0.320769   -0.570533
  H     -3.347342   -1.916899   -0.215678
  H     -4.134563   -0.984825    1.059086
  H     -1.674069   -0.874460    1.320803
  H     -2.323482    0.723399    0.945502
  H     -1.740298    0.394935   -1.453205
  H     -0.991423   -1.172608   -1.052352
  H      2.885248    0.542458   -1.015964
  H      2.260603    1.143809    0.541188
  H      2.666535   -1.108798    1.558630
  H      3.239563   -1.714940    0.000938
  H      4.163892   -0.473499    0.861805

 Total Charge           Charge          ....    0
 Multiplicity           Mult            ....    1
 Number of Electrons    NEL             ....   64
 Basis Dimension        Dim             ....  136

ORBITAL ENERGIES
----------------

  NO   OCC          E(Eh)            E(eV)
   0   2.0000     -18.795866      -511.4615
   1   2.0000     -18.730142      -509.6731
   2   2.0000     -10.000673      -272.1321
   3   2.0000      -9.943552      -270.5778
   4   2.0000      -9.893601      -269.2186
   5   2.0000      -9.892436      -269.1869
   6   2.0000      -9.888441      -269.0782
   7   2.0000      -9.878435      -268.8059
   8   2.0000      -1.001841       -27.2615
   9   2.0000      -0.905861       -24.6497
  10   2.0000      -0.726684       -19.7741
  11   2.0000      -0.699570       -19.0363
  12   2.0000      -0.638577       -17.3766
  13   2.0000      -0.582381       -15.8474
  14   2.0000      -0.531651       -14.4670
  15   2.0000      -0.502245       -13.6668
  16   2.0000      -0.446718       -12.1558
  17   2.0000      -0.435627       -11.8540
  18   2.0000      -0.426858       -11.6154
  19   2.0000      -0.397304       -10.8112
  20   2.0000      -0.389622       -10.6021
  21   2.0000      -0.365318        -9.9408
  22   2.0000      -0.359045        -9.7701
  23   2.0000      -0.355036        -9.6610
  24   2.0000      -0.343937        -9.3590
  25   2.0000      -0.321490        -8.7482
  26   2.0000      -0.314205        -8.5499
  27   2.0000      -0.300441        -8.1754
  28   2.0000      -0.294446        -8.0123
  29   2.0000      -0.286680        -7.8010
  30   2.0000      -0.252756        -6.8778
  31   2.0000      -0.215592        -5.8665
  32   0.0000      -0.016837        -0.4581
  33   0.0000       0.039186         1.0663
  34   0.0000       0.050152         1.3647
  35   0.0000       0.075618         2.0577
  36   0.0000       0.082479         2.2444

MULLIKEN ATOMIC CHARGES
-----------------------
   0 C :   -0.248251
   1 C :   -0.231781
   2 C :   -0.133567
   3 C :    0.113488
   4 O :   -0.213006
   5 O :   -0.237773
   6 C :   -0.028758
   7 C :   -0.283763
   8 H :    0.099990
   9 H :    0.098112
  10 H :    0.106830
  11 H :    0.093088
  12 H :    0.109710
  13 H :    0.105447
  14 H :    0.091474
  15 H :    0.103648
  16 H :    0.115971
  17 H :    0.113160
  18 H :    0.114325
  19 H :    0.111657
Sum of atomic charges:    0.0000000

LOEWDIN ATOMIC CHARGES
----------------------
   0 C :   -0.339638
   1 C :   -0.225689
   2 C :   -0.244800
   3 C :    0.036500
   4 O :   -0.175398
   5 O :   -0.068115
   6 C :   -0.113400
   7 C :   -0.351360
   8 H :    0.118765
   9 H :    0.117461
  10 H :    0.121738
  11 H :    0.117707
  12 H :    0.124035
  13 H :    0.138226
  14 H :    0.126158
  15 H :    0.116523
  16 H :    0.120121
  17 H :    0.125760
  18 H :    0.125464
  19 H :    0.129943

  Mayer bond orders larger than 0.100000
B(  0-C ,  1-C ) :   1.1585 B(  0-C ,  8-H ) :   0.9540 B(  0-C ,  9-H ) :   0.9527
B(  0-C , 10-H ) :   0.9523 B(  1-C ,  2-C ) :   1.1270 B(  1-C , 11-H ) :   0.9300
B(  1-C , 12-H ) :   0.9225 B(  2-C ,  3-C ) :   1.0179 B(  2-C , 13-H ) :   0.8957
B(  2-C , 14-H ) :   0.9078 B(  3-C ,  4-O ) :   2.0536 B(  3-C ,  5-O ) :   1.2182
B(  5-O ,  6-C ) :   0.9121 B(  6-C ,  7-C ) :   1.1614 B(  6-C , 15-H ) :   0.9359
B(  6-C , 16-H ) :   0.9104 B(  7-C , 17-H ) :   0.9522 B(  7-C , 18-H ) :   0.9491
B(  7-C , 19-H ) :   0.9448

Dispersion correction           -0.014297187
FINAL SINGLE POINT ENERGY      -385.457175936301

DIPOLE MOMENT
-------------

Method             : SCF
Type of density    : Electron Density
Multiplicity       :   1
Irrep              :   0
Energy             :  -385.5322539366014780 Eh
Relativity type    :
Basis              : AO
                                X                 Y                 Z
Electronic contribution:      3.082445198       4.695027940      -1.931057696
Nuclear contribution   :     -2.803609483      -5.384654853       1.852595757
                        -----------------------------------------
Total Dipole Moment    :      0.278835715      -0.689626913      -0.078461939
                        -----------------------------------------
Magnitude (a.u.)       :      0.747991251
Magnitude (Debye)      :      1.901242665

Rotational constants in cm-1:             0.149432             0.029769             0.027114
Rotational constants in MHz :          4479.846532           892.445957           812.848076

                             ****ORCA TERMINATED NORMALLY****
TOTAL RUN TIME: 0 days 0 hours 0 minutes 11 seconds 22 msec
