                         Program Version 6.0.0  -   RELEASE  -
|  1> ! r2scan-3c def2/J RI DEFGRID2 scfconv6 printgap
|  2> %output
|  3>     printlevel normal
|  4> end
|  5> * xyz 0 1
|  6> C -3.2188497765 -1.0490445097 0.022992486
|  7> C -2.715221409 0.3357551997 0.4129736951
|  8> C -1.2015940887 0.3891319899 0.6194212228
|  9> C -0.4198487754 0.1525135668 -0.6821883777
| 10> C 1.0460312288 0.3455223235 -0.408745368
| 11> O 1.6645056677 1.3703353217 -0.6108035471
| 12> O 1.5897568439 -0.7453737377 0.1180936037
| 13> C 2.9703448148 -0.7056776744 0.4893001513
| 14> H -2.8988415448 -1.7891235983 0.7525675081
| 15> H -4.3051047196 -1.0535448517 -0.016390341
| 16> H -2.844844722 -1.3409654174 -0.9542658363
| 17> H -3.0005203404 1.0582881201 -0.3537704556
| 18> H -3.1940037621 0.6368584024 1.3467743973
| 19> H -0.9050257636 -0.364005283 1.3519377482
| 20> H -0.9302344945 1.371373379 1.0136542521
| 21> H -0.7322781916 0.8715911543 -1.4387781053
| 22> H -0.5811257098 -0.8647779586 -1.0335544816
| 23> H 3.3246299869 -1.7311892486 0.4421881451
| 24> H 3.061826345 -0.313186287 1.5022516087
| 25> H 3.522775582 -0.0645819562 -0.198658233
| 26> *
| 27>
| 28>                          ****END OF INPUT****

CARTESIAN COORDINATES (ANGSTROEM)
---------------------------------
  C     -3.218850   -1.049045    0.022992
  C     -2.715221    0.335755    0.412974
  C     -1.201594    0.389132    0.619421
  C     -0.419849    0.152514   -0.682188
  C      1.046031    0.345522   -0.408745
  O      1.664506    1.370335   -0.610804
  O      1.589757   -0.745374    0.118094
  C      2.970345   -0.705678    0.489300
  H     -2.898842   -1.789124    0.752568
  H     -4.305105   -1.053545   -0.016390
  H     -2.844845   -1.340965   -0.954266
  H     -3.000520    1.058288   -0.353770
  H     -3.194004    0.636858    1.346774
  H     -0.905026   -0.364005    1.351938
  H     -0.930234    1.371373    1.013654
  H     -0.732278    0.871591   -1.438778
  H     -0.581126   -0.864778   -1.033554
  H      3.324630   -1.731189    0.442188
  H      3.061826   -0.313186    1.502252
  H      3.522776   -0.064582   -0.198658

 Total Charge           Charge          ....    0
 Multiplicity           Mult            ....    1
 Number of Electrons    NEL             ....   64
 Basis Dimension        Dim             ....  222

ORBITAL ENERGIES
----------------

  NO   OCC          E(Eh)            E(eV)
   0   2.0000     -18.998505      -516.9756
   1   2.0000     -18.927322      -515.0386
   2   2.0000     -10.151489      -276.2361
   3   2.0000     -10.085733      -274.4467
   4   2.0000     -10.041063      -273.2312
   5   2.0000     -10.037419      -273.1321
   6   2.0000     -10.031858      -272.9807
   7   2.0000     -10.020969      -272.6844
   8   2.0000      -1.072194       -29.1759
   9   2.0000      -0.974639       -26.5213
  10   2.0000      -0.781358       -21.2618
  11   2.0000      -0.728427       -19.8215
  12   2.0000      -0.684122       -18.6159
  13   2.0000      -0.625644       -17.0246
  14   2.0000      -0.550168       -14.9708
  15   2.0000      -0.533827       -14.5262
  16   2.0000      -0.472575       -12.8594
  17   2.0000      -0.455010       -12.3815
  18   2.0000      -0.447349       -12.1730
  19   2.0000      -0.428003       -11.6465
  20   2.0000      -0.411487       -11.1971
  21   2.0000      -0.395119       -10.7517
  22   2.0000      -0.378369       -10.2959
  23   2.0000      -0.373249       -10.1566
  24   2.0000      -0.351473        -9.5641
  25   2.0000      -0.337056        -9.1718
  26   2.0000      -0.321607        -8.7514
  27   2.0000      -0.306458        -8.3392
  28   2.0000      -0.306011        -8.3270
  29   2.0000      -0.298465        -8.1217
  30   2.0000      -0.272092        -7.4040
  31   2.0000      -0.233610        -6.3568
  32   0.0000      -0.013820        -0.3761
  33   0.0000       0.065913         1.7936
  34   0.0000       0.093267         2.5379
  35   0.0000       0.095132         2.5887
  36   0.0000       0.115873         3.1531

MULLIKEN ATOMIC CHARGES
-----------------------
   0 C :   -0.493015
   1 C :   -0.208897
   2 C :   -0.268520
   3 C :   -0.343847
   4 C :    0.403770
   5 O :   -0.427630
   6 O :   -0.198229
   7 C :   -0.293451
   8 H :    0.147428
   9 H :    0.149166
  10 H :    0.146924
  11 H :    0.135716
  12 H :    0.146157
  13 H :    0.150885
  14 H :    0.153370
  15 H :    0.164313
  16 H :    0.158044
  17 H :    0.149024
  18 H :    0.151567
  19 H :    0.177226
Sum of atomic charges:    0.0000000

LOEWDIN ATOMIC CHARGES
----------------------
   0 C :   -0.425113
   1 C :   -0.313930
   2 C :   -0.282469
   3 C :   -0.227434
   4 C :    0.352645
   5 O :   -0.429586
   6 O :   -0.604422
   7 C :   -0.045053
   8 H :    0.151326
   9 H :    0.152303
  10 H :    0.148936
  11 H :    0.153224
  12 H :    0.154748
  13 H :    0.161424
  14 H :    0.164273
  15 H :    0.177795
  16 H :    0.177361
  17 H :    0.175285
  18 H :    0.172149
  19 H :    0.186536

  Mayer bond orders larger than 0.100000
B(  0-C ,  1-C ) :   0.8906 B(  0-C ,  8-H ) :   0.9822 B(  0-C ,  9-H ) :   0.9693
B(  0-C , 10-H ) :   0.9805 B(  1-C ,  2-C ) :   0.8941 B(  1-C , 11-H ) :   0.9807
B(  1-C , 12-H ) :   0.9696 B(  2-C ,  3-C ) :   0.9117 B(  2-C , 13-H ) :   0.9749
B(  2-C , 14-H ) :   0.9591 B(  3-C ,  4-C ) :   0.9857 B(  3-C , 15-H ) :   0.9756
B(  3-C , 16-H ) :   0.9629 B(  4-C ,  5-O ) :   1.8492 B(  4-C ,  6-O ) :   1.0361
B(  6-O ,  7-C ) :   0.8449 B(  7-C , 17-H ) :   0.9707 B(  7-C , 18-H ) :   0.9592
B(  7-C , 19-H ) :   0.9667

Dispersion correction           -0.005060860
FINAL SINGLE POINT ENERGY      -386.229112668002

DIPOLE MOMENT
-------------

Method             : SCF
Type of density    : Electron Density
Multiplicity       :   1
Irrep              :   0
Energy             :  -386.2360543914824689 Eh
Relativity type    :
Basis              : AO
                                X                 Y                 Z
Electronic contribution:      8.583226280       2.623899529      -1.917329634
Nuclear contribution   :     -8.848143015      -3.352431497       2.257387341
                        -----------------------------------------
Total Dipole Moment    :     -0.264916735      -0.728531967       0.340057707
                        -----------------------------------------
Magnitude (a.u.)       :      0.846509863
Magnitude (Debye)      :      2.151657076

Rotational constants in cm-1:             0.151814             0.030272             0.027597
Rotational constants in MHz :          4551.273055           907.523538           827.324618

                             ****ORCA TERMINATED NORMALLY****
TOTAL RUN TIME: 0 days 0 hours 0 minutes 24 seconds 956 msec
