                         Program Version 6.0.0  -   RELEASE  -
|  1> ! r2scan-3c def2/J RI DEFGRID2 scfconv6 printgap
|  2> %output
|  3>     printlevel normal
|  4> end
|  5> %cpcm
|  6>     smd true
|  7>     smdsolvent "water"
|  8> end
|  9> * xyz 0 1
| 10> C -3.2188497765 -1.0490445097 0.022992486
| 11> C -2.715221409 0.3357551997 0.4129736951
| 12> C -1.2015940887 0.3891319899 0.6194212228
| 13> C -0.4198487754 0.1525135668 -0.6821883777
| 14> C 1.0460312288 0.3455223235 -0.408745368
| 15> O 1.6645056677 1.3703353217 -0.6108035471
| 16> O 1.5897568439 -0.7453737377 0.1180936037
| 17> C 2.9703448148 -0.7056776744 0.4893001513
| 18> H -2.8988415448 -1.7891235983 0.7525675081
| 19> H -4.3051047196 -1.0535448517 -0.016390341
| 20> H -2.844844722 -1.3409654174 -0.9542658363
| 21> H -3.0005203404 1.0582881201 -0.3537704556
| 22> H -3.1940037621 0.6368584024 1.3467743973
| 23> H -0.9050257636 -0.364005283 1.3519377482
| 24> H -0.9302344945 1.371373379 1.0136542521
| 25> H -0.7322781916 0.8715911543 -1.4387781053
| 26> H -0.5811257098 -0.8647779586 -1.0335544816
| 27> H 3.3246299869 -1.7311892486 0.4421881451
| 28> H 3.061826345 -0.313186287 1.5022516087
| 29> H 3.522775582 -0.0645819562 -0.198658233
| 30> *
| 31>
| 32>                          ****END OF INPUT****

CARTESIAN COORDINATES (ANGSTROEM)
---------------------------------
  C     -3.218850   -1.049045    0.022992
  C     -2.715221    0.335755    0.412974
  C     -1.201594    0.389132    0.619421
  C     -0.419849    0.152514   -0.682188
  C      1.046031    0.345522   -0.408745
  O      1.664506    1.370335   -0.610804
  O      1.589757   -0.745374    0.118094
  C      2.970345   -0.705678    0.489300
  H     -2.898842   -1.789124    0.752568
  H     -4.305105   -1.053545   -0.016390
  H     -2.844845   -1.340965   -0.954266
  H     -3.000520    1.058288   -0.353770
  H     -3.194004    0.636858    1.346774
  H     -0.905026   -0.364005    1.351938
  H     -0.930234    1.371373    1.013654
  H     -0.732278    0.871591   -1.438778
  H     -0.581126   -0.864778   -1.033554
  H      3.324630   -1.731189    0.442188
  H      3.061826   -0.313186    1.502252
  H      3.522776   -0.064582   -0.198658

 Total Charge           Charge          ....    0
 Multiplicity           Mult            ....    1
 Number of Electrons    NEL             ....   64
 Basis Dimension        Dim             ....  222

ORBITAL ENERGIES
----------------

  NO   OCC          E(Eh)            E(eV)
   0   2.0000     -19.004086      -517.1275
   1   2.0000     -18.943464      -515.4779
   2   2.0000     -10.162007      -276.5223
   3   2.0000     -10.075844      -274.1776
   4   2.0000     -10.034893      -273.0633
   5   2.0000     -10.028299      -272.8839
   6   2.0000     -10.020016      -272.6585
   7   2.0000     -10.008391      -272.3422
   8   2.0000      -1.079338       -29.3703
   9   2.0000      -0.988686       -26.9035
  10   2.0000      -0.773597       -21.0507
  11   2.0000      -0.722056       -19.6481
  12   2.0000      -0.676672       -18.4132
  13   2.0000      -0.616702       -16.7813
  14   2.0000      -0.541530       -14.7358
  15   2.0000      -0.530776       -14.4432
  16   2.0000      -0.472445       -12.8559
  17   2.0000      -0.457952       -12.4615
  18   2.0000      -0.450039       -12.2462
  19   2.0000      -0.423695       -11.5293
  20   2.0000      -0.407463       -11.0876
  21   2.0000      -0.387151       -10.5349
  22   2.0000      -0.372796       -10.1443
  23   2.0000      -0.369241       -10.0476
  24   2.0000      -0.345272        -9.3953
  25   2.0000      -0.328916        -8.9503
  26   2.0000      -0.322972        -8.7885
  27   2.0000      -0.298749        -8.1294
  28   2.0000      -0.295915        -8.0523
  29   2.0000      -0.289634        -7.8813
  30   2.0000      -0.278487        -7.5780
  31   2.0000      -0.249580        -6.7914
  32   0.0000      -0.022173        -0.6034
  33   0.0000       0.070794         1.9264
  34   0.0000       0.102650         2.7932
  35   0.0000       0.105131         2.8608
  36   0.0000       0.126840         3.4515

MULLIKEN ATOMIC CHARGES
-----------------------
   0 C :   -0.530324
   1 C :   -0.225920
   2 C :   -0.261554
   3 C :   -0.373183
   4 C :    0.446708
   5 O :   -0.514277
   6 O :   -0.212665
   7 C :   -0.319417
   8 H :    0.157627
   9 H :    0.158512
  10 H :    0.159995
  11 H :    0.146389
  12 H :    0.156330
  13 H :    0.160567
  14 H :    0.157958
  15 H :    0.177627
  16 H :    0.181422
  17 H :    0.176442
  18 H :    0.179178
  19 H :    0.178584
Sum of atomic charges:    0.0000000

LOEWDIN ATOMIC CHARGES
----------------------
   0 C :   -0.432663
   1 C :   -0.313776
   2 C :   -0.281026
   3 C :   -0.225687
   4 C :    0.361517
   5 O :   -0.492207
   6 O :   -0.605786
   7 C :   -0.041325
   8 H :    0.153852
   9 H :    0.154143
  10 H :    0.152803
  11 H :    0.156257
  12 H :    0.157766
  13 H :    0.164615
  14 H :    0.165302
  15 H :    0.182736
  16 H :    0.186943
  17 H :    0.187390
  18 H :    0.181939
  19 H :    0.187210

  Mayer bond orders larger than 0.100000
B(  0-C ,  1-C ) :   0.8855 B(  0-C ,  8-H ) :   0.9797 B(  0-C ,  9-H ) :   0.9677
B(  0-C , 10-H ) :   0.9767 B(  1-C ,  2-C ) :   0.8902 B(  1-C , 11-H ) :   0.9814
B(  1-C , 12-H ) :   0.9694 B(  2-C ,  3-C ) :   0.9019 B(  2-C , 13-H ) :   0.9705
B(  2-C , 14-H ) :   0.9580 B(  3-C ,  4-C ) :   0.9788 B(  3-C , 15-H ) :   0.9758
B(  3-C , 16-H ) :   0.9536 B(  4-C ,  5-O ) :   1.7799 B(  4-C ,  6-O ) :   1.0636
B(  6-O ,  7-C ) :   0.8282 B(  7-C , 17-H ) :   0.9606 B(  7-C , 18-H ) :   0.9519
B(  7-C , 19-H ) :   0.9626

Dispersion correction           -0.005060860
FINAL SINGLE POINT ENERGY      -386.233937119527

DIPOLE MOMENT
-------------

Method             : SCF
Type of density    : Electron Density
Multiplicity       :   1
Irrep              :   0
Energy             :  -386.2408788430067830 Eh
Relativity type    :
Basis              : AO
                                X                 Y                 Z
Electronic contribution:      8.481052978       2.319033848      -1.813390064
Nuclear contribution   :     -8.848143015      -3.352431497       2.257387341
                        -----------------------------------------
Total Dipole Moment    :     -0.367090036      -1.033397649       0.443997277
                        -----------------------------------------
Magnitude (a.u.)       :      1.183131175
Magnitude (Debye)      :      3.007280454

Rotational constants in cm-1:             0.151814             0.030272             0.027597
Rotational constants in MHz :          4551.273055           907.523538           827.324618

                             ****ORCA TERMINATED NORMALLY****
TOTAL RUN TIME: 0 days 0 hours 0 minutes 32 seconds 923 msec
