                         Program Version 6.0.0  -   RELEASE  -
|  1> ! r2scan-3c def2/J RI DEFGRID2 scfconv6 printgap
|  2> %output
|  3>     printlevel normal
|  4> end
|  5> * xyz 0 1
|  6> C -3.822258295 -0.5424243098 -0.2753700161
|  7> C -2.6874233799 0.1020423854 0.5117121408
|  8> C -1.3354048791 -0.1462934354 -0.1522925489
|  9> C -0.1881780926 0.4862871078 0.6435301364
| 10> C 1.1133422577 0.3263401962 -0.0952691609
| 11> O 1.329536739 0.7232841807 -1.2212491699
| 12> O 2.0166672923 -0.3246503912 0.6291486694
| 13> C 3.3002714051 -0.5526937569 0.0401249772
| 14> H -3.8620193764 -0.1389374609 -1.2845140112
| 15> H -3.6768097746 -1.618032198 -0.3430201233
| 16> H -4.7767228669 -0.3537890912 0.2090717276
| 17> H -2.8611780858 1.1771713736 0.5847240783
| 18> H -2.6710830442 -0.3038960238 1.5248299027
| 19> H -1.3340843003 0.2730353205 -1.1607361959
| 20> H -1.1642445307 -1.2214885963 -0.2384789285
| 21> H -0.0937712382 0.0286368283 1.6272580601
| 22> H -0.3799630124 1.554897468 0.7566188685
| 23> H 3.7931979043 0.3999634026 -0.1563607426
| 24> H 3.1878513119 -1.0942972521 -0.8997148712
| 25> H 3.8560620443 -1.1374393231 0.7660049543
| 26> *
| 27>
| 28>                          ****END OF INPUT****

CARTESIAN COORDINATES (ANGSTROEM)
---------------------------------
  C     -3.822258   -0.542424   -0.275370
  C     -2.687423    0.102042    0.511712
  C     -1.335405   -0.146293   -0.152293
  C     -0.188178    0.486287    0.643530
  C      1.113342    0.326340   -0.095269
  O      1.329537    0.723284   -1.221249
  O      2.016667   -0.324650    0.629149
  C      3.300271   -0.552694    0.040125
  H     -3.862019   -0.138937   -1.284514
  H     -3.676810   -1.618032   -0.343020
  H     -4.776723   -0.353789    0.209072
  H     -2.861178    1.177171    0.584724
  H     -2.671083   -0.303896    1.524830
  H     -1.334084    0.273035   -1.160736
  H     -1.164245   -1.221489   -0.238479
  H     -0.093771    0.028637    1.627258
  H     -0.379963    1.554897    0.756619
  H      3.793198    0.399963   -0.156361
  H      3.187851   -1.094297   -0.899715
  H      3.856062   -1.137439    0.766005

 Total Charge           Charge          ....    0
 Multiplicity           Mult            ....    1
 Number of Electrons    NEL             ....   64
 Basis Dimension        Dim             ....  222

ORBITAL ENERGIES
----------------

  NO   OCC          E(Eh)            E(eV)
   0   2.0000     -18.999868      -517.0127
   1   2.0000     -18.927911      -515.0546
   2   2.0000     -10.151360      -276.2325
   3   2.0000     -10.086641      -274.4715
   4   2.0000     -10.041499      -273.2431
   5   2.0000     -10.033203      -273.0173
   6   2.0000     -10.029565      -272.9184
   7   2.0000     -10.018592      -272.6197
   8   2.0000      -1.073166       -29.2023
   9   2.0000      -0.975370       -26.5412
  10   2.0000      -0.777988       -21.1701
  11   2.0000      -0.729004       -19.8372
  12   2.0000      -0.686644       -18.6845
  13   2.0000      -0.616166       -16.7667
  14   2.0000      -0.554068       -15.0769
  15   2.0000      -0.532020       -14.4770
  16   2.0000      -0.465822       -12.6756
  17   2.0000      -0.458917       -12.4878
  18   2.0000      -0.448809       -12.2127
  19   2.0000      -0.434675       -11.8281
  20   2.0000      -0.405327       -11.0295
  21   2.0000      -0.391384       -10.6501
  22   2.0000      -0.386490       -10.5169
  23   2.0000      -0.365013        -9.9325
  24   2.0000      -0.348224        -9.4757
  25   2.0000      -0.328343        -8.9347
  26   2.0000      -0.322994        -8.7891
  27   2.0000      -0.309670        -8.4265
  28   2.0000      -0.300467        -8.1761
  29   2.0000      -0.299898        -8.1606
  30   2.0000      -0.273836        -7.4514
  31   2.0000      -0.235856        -6.4180
  32   0.0000      -0.015452        -0.4205
  33   0.0000       0.066637         1.8133
  34   0.0000       0.098069         2.6686
  35   0.0000       0.099324         2.7027
  36   0.0000       0.120038         3.2664

MULLIKEN ATOMIC CHARGES
-----------------------
   0 C :   -0.466261
   1 C :   -0.233775
   2 C :   -0.274866
   3 C :   -0.329129
   4 C :    0.394233
   5 O :   -0.425993
   6 O :   -0.188167
   7 C :   -0.296070
   8 H :    0.144746
   9 H :    0.142569
  10 H :    0.148031
  11 H :    0.138877
  12 H :    0.135549
  13 H :    0.168765
  14 H :    0.138506
  15 H :    0.163693
  16 H :    0.165600
  17 H :    0.159764
  18 H :    0.163551
  19 H :    0.150377
Sum of atomic charges:    0.0000000

LOEWDIN ATOMIC CHARGES
----------------------
   0 C :   -0.422826
   1 C :   -0.313905
   2 C :   -0.283165
   3 C :   -0.228079
   4 C :    0.353988
   5 O :   -0.427554
   6 O :   -0.604003
   7 C :   -0.045103
   8 H :    0.151395
   9 H :    0.150192
  10 H :    0.150896
  11 H :    0.151948
  12 H :    0.151325
  13 H :    0.168990
  14 H :    0.157906
  15 H :    0.177376
  16 H :    0.180676
  17 H :    0.176096
  18 H :    0.177865
  19 H :    0.175982

  Mayer bond orders larger than 0.100000
B(  0-C ,  1-C ) :   0.9029 B(  0-C ,  8-H ) :   0.9825 B(  0-C ,  9-H ) :   0.9826
B(  0-C , 10-H ) :   0.9751 B(  1-C ,  2-C ) :   0.9190 B(  1-C , 11-H ) :   0.9795
B(  1-C , 12-H ) :   0.9678 B(  2-C ,  3-C ) :   0.9180 B(  2-C , 13-H ) :   0.9687
B(  2-C , 14-H ) :   0.9622 B(  3-C ,  4-C ) :   0.9637 B(  3-C , 15-H ) :   0.9834
B(  3-C , 16-H ) :   0.9623 B(  4-C ,  5-O ) :   1.8081 B(  4-C ,  6-O ) :   1.0575
B(  6-O ,  7-C ) :   0.8525 B(  7-C , 17-H ) :   0.9614 B(  7-C , 18-H ) :   0.9631
B(  7-C , 19-H ) :   0.9693

Dispersion correction           -0.004876629
FINAL SINGLE POINT ENERGY      -386.231010093561

DIPOLE MOMENT
-------------

Method             : SCF
Type of density    : Electron Density
Multiplicity       :   1
Irrep              :   0
Energy             :  -386.2380303534800419 Eh
Relativity type    :
Basis              : AO
                                X                 Y                 Z
Electronic contribution:      9.348680908       1.917336985      -0.646554951
Nuclear contribution   :     -9.315879584      -2.277751434       1.291221617
                        -----------------------------------------
Total Dipole Moment    :      0.032801324      -0.360414449       0.644666666
                        -----------------------------------------
Magnitude (a.u.)       :      0.739303464
Magnitude (Debye)      :      1.879160066

Rotational constants in cm-1:             0.203870             0.025461             0.024513
Rotational constants in MHz :          6111.878210           763.298197           734.884438

                             ****ORCA TERMINATED NORMALLY****
TOTAL RUN TIME: 0 days 0 hours 0 minutes 27 seconds 871 msec
