                         Program Version 6.0.0  -   RELEASE  -
|  1> ! r2scan-3c def2/J RI DEFGRID2 scfconv6 printgap
|  2> %output
|  3>     printlevel normal
|  4> end
|  5> %cpcm
|  6>     smd true
|  7>     smdsolvent "water"
|  8> end
|  9> * xyz 0 1
| 10> C -3.822258295 -0.5424243098 -0.2753700161
| 11> C -2.6874233799 0.1020423854 0.5117121408
| 12> C -1.3354048791 -0.1462934354 -0.1522925489
| 13> C -0.1881780926 0.4862871078 0.6435301364
| 14> C 1.1133422577 0.3263401962 -0.0952691609
| 15> O 1.329536739 0.7232841807 -1.2212491699
| 16> O 2.0166672923 -0.3246503912 0.6291486694
| 17> C 3.3002714051 -0.5526937569 0.0401249772
| 18> H -3.8620193764 -0.1389374609 -1.2845140112
| 19> H -3.6768097746 -1.618032198 -0.3430201233
| 20> H -4.7767228669 -0.3537890912 0.2090717276
| 21> H -2.8611780858 1.1771713736 0.5847240783
| 22> H -2.6710830442 -0.3038960238 1.5248299027
| 23> H -1.3340843003 0.2730353205 -1.1607361959
| 24> H -1.1642445307 -1.2214885963 -0.2384789285
| 25> H -0.0937712382 0.0286368283 1.6272580601
| 26> H -0.3799630124 1.554897468 0.7566188685
| 27> H 3.7931979043 0.3999634026 -0.1563607426
| 28> H 3.1878513119 -1.0942972521 -0.8997148712
| 29> H 3.8560620443 -1.1374393231 0.7660049543
| 30> *
| 31>
| 32>                          ****END OF INPUT****

CARTESIAN COORDINATES (ANGSTROEM)
---------------------------------
  C     -3.822258   -0.542424   -0.275370
  C     -2.687423    0.102042    0.511712
  C     -1.335405   -0.146293   -0.152293
  C     -0.188178    0.486287    0.643530
  C      1.113342    0.326340   -0.095269
  O      1.329537    0.723284   -1.221249
  O      2.016667   -0.324650    0.629149
  C      3.300271   -0.552694    0.040125
  H     -3.862019   -0.138937   -1.284514
  H     -3.676810   -1.618032   -0.343020
  H     -4.776723   -0.353789    0.209072
  H     -2.861178    1.177171    0.584724
  H     -2.671083   -0.303896    1.524830
  H     -1.334084    0.273035   -1.160736
  H     -1.164245   -1.221489   -0.238479
  H     -0.093771    0.028637    1.627258
  H     -0.379963    1.554897    0.756619
  H      3.793198    0.399963   -0.156361
  H      3.187851   -1.094297   -0.899715
  H      3.856062   -1.137439    0.766005

 Total Charge           Charge          ....    0
 Multiplicity           Mult            ....    1
 Number of Electrons    NEL             ....   64
 Basis Dimension        Dim             ....  222

ORBITAL ENERGIES
----------------

  NO   OCC          E(Eh)            E(eV)
   0   2.0000     -19.005186      -517.1574
   1   2.0000     -18.944019      -515.4930
   2   2.0000     -10.161985      -276.5217
   3   2.0000     -10.076361      -274.1917
   4   2.0000     -10.035383      -273.0767
   5   2.0000     -10.025967      -272.8204
   6   2.0000     -10.019114      -272.6339
   7   2.0000     -10.008693      -272.3504
   8   2.0000      -1.080201       -29.3938
   9   2.0000      -0.989136       -26.9158
  10   2.0000      -0.771329       -20.9889
  11   2.0000      -0.723527       -19.6882
  12   2.0000      -0.680015       -18.5041
  13   2.0000      -0.608938       -16.5700
  14   2.0000      -0.545716       -14.8497
  15   2.0000      -0.530262       -14.4292
  16   2.0000      -0.467508       -12.7215
  17   2.0000      -0.459696       -12.5090
  18   2.0000      -0.451539       -12.2870
  19   2.0000      -0.433903       -11.8071
  20   2.0000      -0.398327       -10.8390
  21   2.0000      -0.389834       -10.6079
  22   2.0000      -0.378675       -10.3043
  23   2.0000      -0.362029        -9.8513
  24   2.0000      -0.343965        -9.3598
  25   2.0000      -0.327320        -8.9068
  26   2.0000      -0.317437        -8.6379
  27   2.0000      -0.301586        -8.2066
  28   2.0000      -0.295093        -8.0299
  29   2.0000      -0.290233        -7.8976
  30   2.0000      -0.281482        -7.6595
  31   2.0000      -0.252286        -6.8650
  32   0.0000      -0.023374        -0.6360
  33   0.0000       0.071265         1.9392
  34   0.0000       0.106369         2.8945
  35   0.0000       0.109064         2.9678
  36   0.0000       0.130439         3.5494

MULLIKEN ATOMIC CHARGES
-----------------------
   0 C :   -0.510296
   1 C :   -0.247397
   2 C :   -0.276072
   3 C :   -0.352647
   4 C :    0.440975
   5 O :   -0.512137
   6 O :   -0.203524
   7 C :   -0.330382
   8 H :    0.154097
   9 H :    0.154953
  10 H :    0.158364
  11 H :    0.151200
  12 H :    0.148553
  13 H :    0.160424
  14 H :    0.157033
  15 H :    0.178583
  16 H :    0.193050
  17 H :    0.178421
  18 H :    0.178277
  19 H :    0.178526
Sum of atomic charges:    0.0000000

LOEWDIN ATOMIC CHARGES
----------------------
   0 C :   -0.431248
   1 C :   -0.313098
   2 C :   -0.283345
   3 C :   -0.225417
   4 C :    0.364317
   5 O :   -0.489791
   6 O :   -0.605370
   7 C :   -0.042587
   8 H :    0.152913
   9 H :    0.152925
  10 H :    0.153446
  11 H :    0.155393
  12 H :    0.155506
  13 H :    0.164988
  14 H :    0.163123
  15 H :    0.184766
  16 H :    0.190232
  17 H :    0.182132
  18 H :    0.182830
  19 H :    0.188285

  Mayer bond orders larger than 0.100000
B(  0-C ,  1-C ) :   0.8897 B(  0-C ,  8-H ) :   0.9812 B(  0-C ,  9-H ) :   0.9805
B(  0-C , 10-H ) :   0.9722 B(  1-C ,  2-C ) :   0.9176 B(  1-C , 11-H ) :   0.9795
B(  1-C , 12-H ) :   0.9675 B(  2-C ,  3-C ) :   0.9051 B(  2-C , 13-H ) :   0.9713
B(  2-C , 14-H ) :   0.9584 B(  3-C ,  4-C ) :   0.9645 B(  3-C , 15-H ) :   0.9751
B(  3-C , 16-H ) :   0.9545 B(  4-C ,  5-O ) :   1.7445 B(  4-C ,  6-O ) :   1.0831
B(  6-O ,  7-C ) :   0.8326 B(  7-C , 17-H ) :   0.9557 B(  7-C , 18-H ) :   0.9578
B(  7-C , 19-H ) :   0.9593

Dispersion correction           -0.004876629
FINAL SINGLE POINT ENERGY      -386.235898726534

DIPOLE MOMENT
-------------

Method             : SCF
Type of density    : Electron Density
Multiplicity       :   1
Irrep              :   0
Energy             :  -386.2429189864533896 Eh
Relativity type    :
Basis              : AO
                                X                 Y                 Z
Electronic contribution:      9.363431162       1.784113040      -0.318643329
Nuclear contribution   :     -9.315879584      -2.277751434       1.291221617
                        -----------------------------------------
Total Dipole Moment    :      0.047551577      -0.493638394       0.972578288
                        -----------------------------------------
Magnitude (a.u.)       :      1.091718161
Magnitude (Debye)      :      2.774927039

Rotational constants in cm-1:             0.203870             0.025461             0.024513
Rotational constants in MHz :          6111.878210           763.298197           734.884438

                             ****ORCA TERMINATED NORMALLY****
TOTAL RUN TIME: 0 days 0 hours 0 minutes 32 seconds 860 msec
