                         Program Version 6.0.0  -   RELEASE  -
|  1> ! r2scan-3c def2/J RI DEFGRID2 scfconv6 printgap
|  2> %output
|  3>     printlevel normal
|  4> end
|  5> %cpcm
|  6>     smd true
|  7>     smdsolvent "water"
|  8> end
|  9> * xyz 0 1
| 10> C -2.4598575851 -1.3312366926 -0.2319226457
| 11> C -2.5444550888 0.1536922732 0.0997064373
| 12> C -1.2793099648 0.6465735201 0.8113863352
| 13> C -0.0892280633 0.5661649821 -0.1099283964
| 14> O -0.0048428785 1.130320894 -1.1821521238
| 15> O 0.8647950384 -0.2043253944 0.3914869649
| 16> C 2.0847855985 -0.3799432744 -0.3491031605
| 17> C 3.2377459161 -0.4952722939 0.631363727
| 18> H -3.3789611535 -1.6667291836 -0.7047287958
| 19> H -1.6345991055 -1.5215817593 -0.9157557264
| 20> H -2.3000114457 -1.9159653087 0.6707447453
| 21> H -3.4036326531 0.3372175391 0.7452596502
| 22> H -2.6746561976 0.728952552 -0.8189308138
| 23> H -1.0743745851 0.0500069575 1.699276367
| 24> H -1.4077214931 1.6925257736 1.0936798399
| 25> H 1.9799126165 -1.2920998881 -0.9443736678
| 26> H 2.2055572468 0.4718096583 -1.0261370752
| 27> H 3.3316023047 0.4182685122 1.2117375149
| 28> H 3.0640191182 -1.3252894615 1.309721859
| 29> H 4.1584920693 -0.6659479467 0.0832902635
| 30> *
| 31>
| 32>                          ****END OF INPUT****

CARTESIAN COORDINATES (ANGSTROEM)
---------------------------------
  C     -2.459858   -1.331237   -0.231923
  C     -2.544455    0.153692    0.099706
  C     -1.279310    0.646574    0.811386
  C     -0.089228    0.566165   -0.109928
  O     -0.004843    1.130321   -1.182152
  O      0.864795   -0.204325    0.391487
  C      2.084786   -0.379943   -0.349103
  C      3.237746   -0.495272    0.631364
  H     -3.378961   -1.666729   -0.704729
  H     -1.634599   -1.521582   -0.915756
  H     -2.300011   -1.915965    0.670745
  H     -3.403633    0.337218    0.745260
  H     -2.674656    0.728953   -0.818931
  H     -1.074375    0.050007    1.699276
  H     -1.407721    1.692526    1.093680
  H      1.979913   -1.292100   -0.944374
  H      2.205557    0.471810   -1.026137
  H      3.331602    0.418269    1.211738
  H      3.064019   -1.325289    1.309722
  H      4.158492   -0.665948    0.083290

 Total Charge           Charge          ....    0
 Multiplicity           Mult            ....    1
 Number of Electrons    NEL             ....   64
 Basis Dimension        Dim             ....  222

ORBITAL ENERGIES
----------------

  NO   OCC          E(Eh)            E(eV)
   0   2.0000     -19.003350      -517.1074
   1   2.0000     -18.942649      -515.4557
   2   2.0000     -10.162191      -276.5273
   3   2.0000     -10.082726      -274.3649
   4   2.0000     -10.034943      -273.0647
   5   2.0000     -10.028467      -272.8885
   6   2.0000     -10.018645      -272.6212
   7   2.0000     -10.011687      -272.4319
   8   2.0000      -1.078985       -29.3607
   9   2.0000      -0.988527       -26.8992
  10   2.0000      -0.769652       -20.9433
  11   2.0000      -0.735118       -20.0036
  12   2.0000      -0.672061       -18.2877
  13   2.0000      -0.613510       -16.6945
  14   2.0000      -0.558847       -15.2070
  15   2.0000      -0.527325       -14.3492
  16   2.0000      -0.474695       -12.9171
  17   2.0000      -0.462918       -12.5966
  18   2.0000      -0.439458       -11.9583
  19   2.0000      -0.422198       -11.4886
  20   2.0000      -0.408648       -11.1199
  21   2.0000      -0.376697       -10.2504
  22   2.0000      -0.368834       -10.0365
  23   2.0000      -0.361137        -9.8270
  24   2.0000      -0.356688        -9.7060
  25   2.0000      -0.335330        -9.1248
  26   2.0000      -0.313907        -8.5418
  27   2.0000      -0.304726        -8.2920
  28   2.0000      -0.303984        -8.2718
  29   2.0000      -0.302503        -8.2315
  30   2.0000      -0.277726        -7.5573
  31   2.0000      -0.251398        -6.8409
  32   0.0000      -0.023015        -0.6263
  33   0.0000       0.077085         2.0976
  34   0.0000       0.105229         2.8634
  35   0.0000       0.116288         3.1644
  36   0.0000       0.128256         3.4900

MULLIKEN ATOMIC CHARGES
-----------------------
   0 C :   -0.530024
   1 C :   -0.226060
   2 C :   -0.315683
   3 C :    0.384503
   4 O :   -0.513513
   5 O :   -0.184769
   6 C :   -0.151146
   7 C :   -0.487566
   8 H :    0.161622
   9 H :    0.162692
  10 H :    0.163029
  11 H :    0.164334
  12 H :    0.155791
  13 H :    0.178445
  14 H :    0.191685
  15 H :    0.171532
  16 H :    0.177091
  17 H :    0.165051
  18 H :    0.164728
  19 H :    0.168258
Sum of atomic charges:    0.0000000

LOEWDIN ATOMIC CHARGES
----------------------
   0 C :   -0.423933
   1 C :   -0.291572
   2 C :   -0.229215
   3 C :    0.363865
   4 O :   -0.500896
   5 O :   -0.599093
   6 C :    0.035914
   7 C :   -0.390057
   8 H :    0.156293
   9 H :    0.156217
  10 H :    0.156036
  11 H :    0.160457
  12 H :    0.163050
  13 H :    0.184210
  14 H :    0.190599
  15 H :    0.185005
  16 H :    0.191731
  17 H :    0.161527
  18 H :    0.162009
  19 H :    0.167852

  Mayer bond orders larger than 0.100000
B(  0-C ,  1-C ) :   0.8946 B(  0-C ,  8-H ) :   0.9653 B(  0-C ,  9-H ) :   0.9704
B(  0-C , 10-H ) :   0.9783 B(  1-C ,  2-C ) :   0.8771 B(  1-C , 11-H ) :   0.9618
B(  1-C , 12-H ) :   0.9729 B(  2-C ,  3-C ) :   0.9442 B(  2-C , 13-H ) :   0.9932
B(  2-C , 14-H ) :   0.9316 B(  3-C ,  4-O ) :   1.7615 B(  3-C ,  5-O ) :   1.0908
B(  5-O ,  6-C ) :   0.7722 B(  6-C ,  7-C ) :   0.9442 B(  6-C , 15-H ) :   0.9373
B(  6-C , 16-H ) :   0.9612 B(  7-C , 17-H ) :   0.9725 B(  7-C , 18-H ) :   0.9667
B(  7-C , 19-H ) :   0.9612

Dispersion correction           -0.005048230
FINAL SINGLE POINT ENERGY      -386.240560898722

DIPOLE MOMENT
-------------

Method             : SCF
Type of density    : Electron Density
Multiplicity       :   1
Irrep              :   0
Energy             :  -386.2472591722877269 Eh
Relativity type    :
Basis              : AO
                                X                 Y                 Z
Electronic contribution:      1.349462244       3.713928686      -1.350250516
Nuclear contribution   :     -1.051479719      -4.385175744       2.243426136
                        -----------------------------------------
Total Dipole Moment    :      0.297982524      -0.671247059       0.893175620
                        -----------------------------------------
Magnitude (a.u.)       :      1.156342893
Magnitude (Debye)      :      2.939190053

Rotational constants in cm-1:             0.135598             0.034042             0.031910
Rotational constants in MHz :          4065.113000          1020.538560           956.637169

                             ****ORCA TERMINATED NORMALLY****
TOTAL RUN TIME: 0 days 0 hours 0 minutes 37 seconds 545 msec
