                         Program Version 6.0.0  -   RELEASE  -
|  1> ! r2scan-3c def2/J RI DEFGRID2 scfconv6 printgap
|  2> %output
|  3>     printlevel normal
|  4> end
|  5> * xyz 0 1
|  6> C 3.3035558085 0.3294008593 -0.1800790782
|  7> C 2.2834551737 -0.6647099617 0.3643798601
|  8> C 0.9058542711 -0.5300299551 -0.2846797996
|  9> C 0.2083253715 0.7850022273 0.0602170015
| 10> C -1.1918377198 0.8698890705 -0.5191765161
| 11> Cl -2.2901961842 -0.3402965021 0.2392485056
| 12> H 3.0280489771 1.3501766695 0.0698901668
| 13> H 3.3761414921 0.2444453967 -1.2619128772
| 14> H 4.2841947807 0.1306117794 0.2454428656
| 15> H 2.6497994072 -1.6782957738 0.1874074054
| 16> H 2.1876743796 -0.5334966517 1.4443404331
| 17> H 0.2772987083 -1.3572591526 0.0524238159
| 18> H 1.0084513926 -0.610970559 -1.3689864173
| 19> H 0.77434989 1.623096898 -0.3486494839
| 20> H 0.1617272732 0.9002599786 1.1445505775
| 21> H -1.6460981348 1.8402523439 -0.3287743824
| 22> H -1.1978401993 0.6521671965 -1.5857689671
| 23> *
| 24>
| 25>                          ****END OF INPUT****

CARTESIAN COORDINATES (ANGSTROEM)
---------------------------------
  C      3.303556    0.329401   -0.180079
  C      2.283455   -0.664710    0.364380
  C      0.905854   -0.530030   -0.284680
  C      0.208325    0.785002    0.060217
  C     -1.191838    0.869889   -0.519177
  Cl    -2.290196   -0.340297    0.239249
  H      3.028049    1.350177    0.069890
  H      3.376141    0.244445   -1.261913
  H      4.284195    0.130612    0.245443
  H      2.649799   -1.678296    0.187407
  H      2.187674   -0.533497    1.444340
  H      0.277299   -1.357259    0.052424
  H      1.008451   -0.610971   -1.368986
  H      0.774350    1.623097   -0.348649
  H      0.161727    0.900260    1.144551
  H     -1.646098    1.840252   -0.328774
  H     -1.197840    0.652167   -1.585769

 Total Charge           Charge          ....    0
 Multiplicity           Mult            ....    1
 Number of Electrons    NEL             ....   58
 Basis Dimension        Dim             ....  177

ORBITAL ENERGIES
----------------

  NO   OCC          E(Eh)            E(eV)
   0   2.0000    -101.196894     -2753.7075
   1   2.0000     -10.091680      -274.6086
   2   2.0000     -10.040872      -273.2260
   3   2.0000     -10.028328      -272.8847
   4   2.0000     -10.027831      -272.8711
   5   2.0000     -10.019671      -272.6491
   6   2.0000      -9.352939      -254.5064
   7   2.0000      -7.099086      -193.1759
   8   2.0000      -7.089055      -192.9030
   9   2.0000      -7.088967      -192.9006
  10   2.0000      -0.821868       -22.3642
  11   2.0000      -0.766376       -20.8542
  12   2.0000      -0.709287       -19.3007
  13   2.0000      -0.643523       -17.5112
  14   2.0000      -0.580016       -15.7830
  15   2.0000      -0.540106       -14.6970
  16   2.0000      -0.448559       -12.2059
  17   2.0000      -0.435782       -11.8582
  18   2.0000      -0.428690       -11.6652
  19   2.0000      -0.396522       -10.7899
  20   2.0000      -0.378252       -10.2928
  21   2.0000      -0.365291        -9.9401
  22   2.0000      -0.347842        -9.4653
  23   2.0000      -0.330447        -8.9919
  24   2.0000      -0.302889        -8.2420
  25   2.0000      -0.300367        -8.1734
  26   2.0000      -0.296908        -8.0793
  27   2.0000      -0.264111        -7.1868
  28   2.0000      -0.260455        -7.0873
  29   0.0000       0.009470         0.2577
  30   0.0000       0.088789         2.4161
  31   0.0000       0.095738         2.6052
  32   0.0000       0.115089         3.1317
  33   0.0000       0.122298         3.3279

MULLIKEN ATOMIC CHARGES
-----------------------
   0 C :   -0.490745
   1 C :   -0.216405
   2 C :   -0.269126
   3 C :   -0.301471
   4 C :   -0.145955
   5 Cl:   -0.211545
   6 H :    0.145842
   7 H :    0.143778
   8 H :    0.147916
   9 H :    0.145189
  10 H :    0.134548
  11 H :    0.164234
  12 H :    0.134189
  13 H :    0.147351
  14 H :    0.157385
  15 H :    0.164484
  16 H :    0.150330
Sum of atomic charges:   -0.0000000

LOEWDIN ATOMIC CHARGES
----------------------
   0 C :   -0.427531
   1 C :   -0.315539
   2 C :   -0.318144
   3 C :   -0.327590
   4 C :   -0.316375
   5 Cl:   -0.009257
   6 H :    0.147504
   7 H :    0.150105
   8 H :    0.151732
   9 H :    0.153473
  10 H :    0.152533
  11 H :    0.163987
  12 H :    0.153637
  13 H :    0.162351
  14 H :    0.163362
  15 H :    0.157395
  16 H :    0.158358

  Mayer bond orders larger than 0.100000
B(  0-C ,  1-C ) :   0.8899 B(  0-C ,  6-H ) :   0.9844 B(  0-C ,  7-H ) :   0.9812
B(  0-C ,  8-H ) :   0.9689 B(  1-C ,  2-C ) :   0.9038 B(  1-C ,  9-H ) :   0.9722
B(  1-C , 10-H ) :   0.9811 B(  2-C ,  3-C ) :   0.9173 B(  2-C , 11-H ) :   0.9625
B(  2-C , 12-H ) :   0.9769 B(  3-C ,  4-C ) :   0.9383 B(  3-C , 13-H ) :   0.9531
B(  3-C , 14-H ) :   0.9691 B(  4-C ,  5-Cl) :   0.9711 B(  4-C , 15-H ) :   0.9587
B(  4-C , 16-H ) :   0.9665

Dispersion correction           -0.004347513
FINAL SINGLE POINT ENERGY      -657.267919128178

DIPOLE MOMENT
-------------

Method             : SCF
Type of density    : Electron Density
Multiplicity       :   1
Irrep              :   0
Energy             :  -657.2738755716945889 Eh
Relativity type    :
Basis              : AO
                                X                 Y                 Z
Electronic contribution:    -16.420226525      -2.393285020       1.684922868
Nuclear contribution   :     17.056137709       2.859385592      -1.962949700
                        -----------------------------------------
Total Dipole Moment    :      0.635911184       0.466100572      -0.278026832
                        -----------------------------------------
Magnitude (a.u.)       :      0.836021349
Magnitude (Debye)      :      2.124997394

Rotational constants in cm-1:             0.267747             0.035250             0.032826
Rotational constants in MHz :          8026.846850          1056.765911           984.098028

                             ****ORCA TERMINATED NORMALLY****
TOTAL RUN TIME: 0 days 0 hours 0 minutes 19 seconds 43 msec
