                         Program Version 6.0.0  -   RELEASE  -
|  1> ! r2scan-3c def2/J RI DEFGRID2 scfconv6 printgap
|  2> %output
|  3>     printlevel normal
|  4> end
|  5> %cpcm
|  6>     smd true
|  7>     smdsolvent "water"
|  8> end
|  9> * xyz 0 1
| 10> C 3.3035558085 0.3294008593 -0.1800790782
| 11> C 2.2834551737 -0.6647099617 0.3643798601
| 12> C 0.9058542711 -0.5300299551 -0.2846797996
| 13> C 0.2083253715 0.7850022273 0.0602170015
| 14> C -1.1918377198 0.8698890705 -0.5191765161
| 15> Cl -2.2901961842 -0.3402965021 0.2392485056
| 16> H 3.0280489771 1.3501766695 0.0698901668
| 17> H 3.3761414921 0.2444453967 -1.2619128772
| 18> H 4.2841947807 0.1306117794 0.2454428656
| 19> H 2.6497994072 -1.6782957738 0.1874074054
| 20> H 2.1876743796 -0.5334966517 1.4443404331
| 21> H 0.2772987083 -1.3572591526 0.0524238159
| 22> H 1.0084513926 -0.610970559 -1.3689864173
| 23> H 0.77434989 1.623096898 -0.3486494839
| 24> H 0.1617272732 0.9002599786 1.1445505775
| 25> H -1.6460981348 1.8402523439 -0.3287743824
| 26> H -1.1978401993 0.6521671965 -1.5857689671
| 27> *
| 28>
| 29>                          ****END OF INPUT****

CARTESIAN COORDINATES (ANGSTROEM)
---------------------------------
  C      3.303556    0.329401   -0.180079
  C      2.283455   -0.664710    0.364380
  C      0.905854   -0.530030   -0.284680
  C      0.208325    0.785002    0.060217
  C     -1.191838    0.869889   -0.519177
  Cl    -2.290196   -0.340297    0.239249
  H      3.028049    1.350177    0.069890
  H      3.376141    0.244445   -1.261913
  H      4.284195    0.130612    0.245443
  H      2.649799   -1.678296    0.187407
  H      2.187674   -0.533497    1.444340
  H      0.277299   -1.357259    0.052424
  H      1.008451   -0.610971   -1.368986
  H      0.774350    1.623097   -0.348649
  H      0.161727    0.900260    1.144551
  H     -1.646098    1.840252   -0.328774
  H     -1.197840    0.652167   -1.585769

 Total Charge           Charge          ....    0
 Multiplicity           Mult            ....    1
 Number of Electrons    NEL             ....   58
 Basis Dimension        Dim             ....  177

ORBITAL ENERGIES
----------------

  NO   OCC          E(Eh)            E(eV)
   0   2.0000    -101.197310     -2753.7188
   1   2.0000     -10.080350      -274.3003
   2   2.0000     -10.026541      -272.8360
   3   2.0000     -10.016514      -272.5632
   4   2.0000     -10.016004      -272.5493
   5   2.0000     -10.006732      -272.2970
   6   2.0000      -9.353752      -254.5285
   7   2.0000      -7.099489      -193.1869
   8   2.0000      -7.090036      -192.9297
   9   2.0000      -7.089950      -192.9273
  10   2.0000      -0.817086       -22.2340
  11   2.0000      -0.755978       -20.5712
  12   2.0000      -0.698831       -19.0161
  13   2.0000      -0.632450       -17.2099
  14   2.0000      -0.568232       -15.4624
  15   2.0000      -0.527747       -14.3607
  16   2.0000      -0.436951       -11.8900
  17   2.0000      -0.423307       -11.5188
  18   2.0000      -0.416626       -11.3370
  19   2.0000      -0.387760       -10.5515
  20   2.0000      -0.366365        -9.9693
  21   2.0000      -0.354822        -9.6552
  22   2.0000      -0.336826        -9.1655
  23   2.0000      -0.318022        -8.6538
  24   2.0000      -0.291010        -7.9188
  25   2.0000      -0.288736        -7.8569
  26   2.0000      -0.286186        -7.7875
  27   2.0000      -0.264339        -7.1930
  28   2.0000      -0.259185        -7.0528
  29   0.0000       0.014430         0.3927
  30   0.0000       0.102633         2.7928
  31   0.0000       0.108614         2.9555
  32   0.0000       0.126592         3.4447
  33   0.0000       0.134207         3.6520

MULLIKEN ATOMIC CHARGES
-----------------------
   0 C :   -0.525392
   1 C :   -0.231796
   2 C :   -0.285196
   3 C :   -0.306985
   4 C :   -0.162340
   5 Cl:   -0.259755
   6 H :    0.159321
   7 H :    0.154160
   8 H :    0.155591
   9 H :    0.151180
  10 H :    0.142421
  11 H :    0.155784
  12 H :    0.150962
  13 H :    0.169826
  14 H :    0.166278
  15 H :    0.189332
  16 H :    0.176610
Sum of atomic charges:   -0.0000000

LOEWDIN ATOMIC CHARGES
----------------------
   0 C :   -0.434998
   1 C :   -0.318484
   2 C :   -0.321247
   3 C :   -0.325654
   4 C :   -0.310698
   5 Cl:   -0.042093
   6 H :    0.151673
   7 H :    0.152831
   8 H :    0.152612
   9 H :    0.154216
  10 H :    0.154088
  11 H :    0.158868
  12 H :    0.158324
  13 H :    0.171924
  14 H :    0.164664
  15 H :    0.166517
  16 H :    0.167455

  Mayer bond orders larger than 0.100000
B(  0-C ,  1-C ) :   0.8889 B(  0-C ,  6-H ) :   0.9800 B(  0-C ,  7-H ) :   0.9784
B(  0-C ,  8-H ) :   0.9680 B(  1-C ,  2-C ) :   0.8994 B(  1-C ,  9-H ) :   0.9731
B(  1-C , 10-H ) :   0.9815 B(  2-C ,  3-C ) :   0.9071 B(  2-C , 11-H ) :   0.9673
B(  2-C , 12-H ) :   0.9755 B(  3-C ,  4-C ) :   0.9318 B(  3-C , 13-H ) :   0.9463
B(  3-C , 14-H ) :   0.9724 B(  4-C ,  5-Cl) :   0.9333 B(  4-C , 15-H ) :   0.9517
B(  4-C , 16-H ) :   0.9621

Dispersion correction           -0.004347513
FINAL SINGLE POINT ENERGY      -657.269182362537

DIPOLE MOMENT
-------------

Method             : SCF
Type of density    : Electron Density
Multiplicity       :   1
Irrep              :   0
Energy             :  -657.2751388060530644 Eh
Relativity type    :
Basis              : AO
                                X                 Y                 Z
Electronic contribution:    -16.265091097      -2.166321016       1.554397170
Nuclear contribution   :     17.056137709       2.859385592      -1.962949700
                        -----------------------------------------
Total Dipole Moment    :      0.791046612       0.693064576      -0.408552530
                        -----------------------------------------
Magnitude (a.u.)       :      1.128276747
Magnitude (Debye)      :      2.867851579

Rotational constants in cm-1:             0.267747             0.035250             0.032826
Rotational constants in MHz :          8026.846850          1056.765911           984.098028

                             ****ORCA TERMINATED NORMALLY****
TOTAL RUN TIME: 0 days 0 hours 0 minutes 24 seconds 748 msec
