                         Program Version 6.0.0  -   RELEASE  -
|  1> ! pbe def2-sv(p) def2/J RI DEFGRID1 loosescf d4 GCP(DFT/SV(P)) printgap
|  2> %output
|  3>     printlevel normal
|  4> end
|  5> * xyz 0 1
|  6> C 0.5597170346 -2.3238400231 -0.2418396211
|  7> O 1.0701615242 -1.0493635059 0.1440325778
|  8> C 0.2472140806 0.0142956072 -0.1695729006
|  9> O 0.9761824321 1.1277722229 0.1987119238
| 10> C 0.3551289348 2.3715338771 -0.1194516228
| 11> O -0.9667317274 -0.0561759721 0.5214085933
| 12> C -2.152984751 -0.0821650949 -0.2696946317
| 13> H 1.3422164322 -3.0297598079 0.0185608826
| 14> H 0.369904072 -2.3460070807 -1.3192603368
| 15> H -0.35519597 -2.5543090195 0.3078559798
| 16> H 0.0339714712 0.0326626948 -1.2678398546
| 17> H 0.1567429549 2.4325653449 -1.1938151333
| 18> H 1.0757045048 3.1280668401 0.1752693831
| 19> H -0.5723701777 2.4935495911 0.4437345315
| 20> H -2.1694533112 -0.9579983602 -0.9224748962
| 21> H -2.2448040652 0.8268975885 -0.8685352326
| 22> H -2.9657677132 -0.1381601433 0.4490867128
| 23> *
| 24>
| 25>                          ****END OF INPUT****

CARTESIAN COORDINATES (ANGSTROEM)
---------------------------------
  C      0.559717   -2.323840   -0.241840
  O      1.070162   -1.049364    0.144033
  C      0.247214    0.014296   -0.169573
  O      0.976182    1.127772    0.198712
  C      0.355129    2.371534   -0.119452
  O     -0.966732   -0.056176    0.521409
  C     -2.152985   -0.082165   -0.269695
  H      1.342216   -3.029760    0.018561
  H      0.369904   -2.346007   -1.319260
  H     -0.355196   -2.554309    0.307856
  H      0.033971    0.032663   -1.267840
  H      0.156743    2.432565   -1.193815
  H      1.075705    3.128067    0.175269
  H     -0.572370    2.493550    0.443735
  H     -2.169453   -0.957998   -0.922475
  H     -2.244804    0.826898   -0.868535
  H     -2.965768   -0.138160    0.449087

 Total Charge           Charge          ....    0
 Multiplicity           Mult            ....    1
 Number of Electrons    NEL             ....   58
 Basis Dimension        Dim             ....  118

ORBITAL ENERGIES
----------------

  NO   OCC          E(Eh)            E(eV)
   0   2.0000     -18.761539      -510.5274
   1   2.0000     -18.758782      -510.4524
   2   2.0000     -18.758702      -510.4502
   3   2.0000     -10.024128      -272.7704
   4   2.0000      -9.934786      -270.3393
   5   2.0000      -9.925836      -270.0957
   6   2.0000      -9.925760      -270.0937
   7   2.0000      -0.999517       -27.1982
   8   2.0000      -0.915654       -24.9162
   9   2.0000      -0.914740       -24.8914
  10   2.0000      -0.673853       -18.3365
  11   2.0000      -0.625209       -17.0128
  12   2.0000      -0.603021       -16.4090
  13   2.0000      -0.538526       -14.6540
  14   2.0000      -0.473569       -12.8865
  15   2.0000      -0.469368       -12.7721
  16   2.0000      -0.463620       -12.6157
  17   2.0000      -0.404037       -10.9944
  18   2.0000      -0.394805       -10.7432
  19   2.0000      -0.387882       -10.5548
  20   2.0000      -0.384844       -10.4721
  21   2.0000      -0.369350       -10.0505
  22   2.0000      -0.362401        -9.8614
  23   2.0000      -0.297730        -8.1016
  24   2.0000      -0.287654        -7.8275
  25   2.0000      -0.274545        -7.4707
  26   2.0000      -0.237602        -6.4655
  27   2.0000      -0.222112        -6.0440
  28   2.0000      -0.211357        -5.7513
  29   0.0000       0.029826         0.8116
  30   0.0000       0.051604         1.4042
  31   0.0000       0.066223         1.8020
  32   0.0000       0.085073         2.3149
  33   0.0000       0.086327         2.3491

MULLIKEN ATOMIC CHARGES
-----------------------
   0 C :   -0.106592
   1 O :   -0.281148
   2 C :    0.246453
   3 O :   -0.281160
   4 C :   -0.106713
   5 O :   -0.319666
   6 C :   -0.117785
   7 H :    0.123461
   8 H :    0.084712
   9 H :    0.106427
  10 H :    0.015830
  11 H :    0.084766
  12 H :    0.123480
  13 H :    0.106580
  14 H :    0.099327
  15 H :    0.099194
  16 H :    0.122832
Sum of atomic charges:    0.0000000

LOEWDIN ATOMIC CHARGES
----------------------
   0 C :   -0.205444
   1 O :   -0.146020
   2 C :    0.054615
   3 O :   -0.146099
   4 C :   -0.205423
   5 O :   -0.173388
   6 C :   -0.205863
   7 H :    0.121395
   8 H :    0.098604
   9 H :    0.105042
  10 H :    0.054774
  11 H :    0.098593
  12 H :    0.121413
  13 H :    0.105097
  14 H :    0.100571
  15 H :    0.100493
  16 H :    0.121640

  Mayer bond orders larger than 0.100000
B(  0-C ,  1-O ) :   0.9952 B(  0-C ,  7-H ) :   0.9647 B(  0-C ,  8-H ) :   0.9381
B(  0-C ,  9-H ) :   0.9429 B(  1-O ,  2-C ) :   1.1128 B(  2-C ,  3-O ) :   1.1130
B(  2-C ,  5-O ) :   1.0218 B(  2-C , 10-H ) :   0.8908 B(  3-O ,  4-C ) :   0.9952
B(  4-C , 11-H ) :   0.9380 B(  4-C , 12-H ) :   0.9647 B(  4-C , 13-H ) :   0.9429
B(  5-O ,  6-C ) :   0.9832 B(  6-C , 14-H ) :   0.9453 B(  6-C , 15-H ) :   0.9453
B(  6-C , 16-H ) :   0.9630

Dispersion correction           -0.012009004
FINAL SINGLE POINT ENERGY      -383.228455742381

DIPOLE MOMENT
-------------

Method             : SCF
Type of density    : Electron Density
Multiplicity       :   1
Irrep              :   0
Energy             :  -383.3071596407096422 Eh
Relativity type    :
Basis              : AO
                                X                 Y                 Z
Electronic contribution:      4.054683913       0.087565201       3.107178328
Nuclear contribution   :     -4.983538322      -0.105207076      -3.906306988
                        -----------------------------------------
Total Dipole Moment    :     -0.928854409      -0.017641875      -0.799128661
                        -----------------------------------------
Magnitude (a.u.)       :      1.225433950
Magnitude (Debye)      :      3.114805564

Rotational constants in cm-1:             0.115031             0.073280             0.048388
Rotational constants in MHz :          3448.546037          2196.884098          1450.649734

                             ****ORCA TERMINATED NORMALLY****
TOTAL RUN TIME: 0 days 0 hours 0 minutes 8 seconds 816 msec
