                         Program Version 6.0.0  -   RELEASE  -
|  1> ! pbe def2-sv(p) def2/J RI DEFGRID1 loosescf d4 GCP(DFT/SV(P)) printgap
|  2> %output
|  3>     printlevel normal
|  4> end
|  5> * xyz 0 1
|  6> C -2.9876769202 -0.8899010987 -0.2230472052
|  7> C -2.5514253224 0.2907676509 0.6376365942
|  8> C -1.7825958172 1.3517250836 -0.1682178592
|  9> C -0.3424953444 1.5255724455 0.2654111448
| 10> I 0.8750668459 -0.2520020016 -0.056292782
| 11> H -2.127189246 -1.3779207683 -0.6749856917
| 12> H -3.5149120769 -1.6234751255 0.3817802274
| 13> H -3.6529970146 -0.5578638267 -1.0168693225
| 14> H -1.924425608 -0.0776290806 1.4524995207
| 15> H -3.4353546696 0.7415889352 1.0910166419
| 16> H -1.8184794687 1.1035040334 -1.2307128461
| 17> H -2.2573572226 2.3288218413 -0.0472760022
| 18> H -0.2663953461 1.7293448048 1.3302293139
| 19> H 0.1494818731 2.315003446 -0.296616531
| 20> *
| 21>
| 22>                          ****END OF INPUT****

CARTESIAN COORDINATES (ANGSTROEM)
---------------------------------
  C     -2.987677   -0.889901   -0.223047
  C     -2.551425    0.290768    0.637637
  C     -1.782596    1.351725   -0.168218
  C     -0.342495    1.525572    0.265411
  I      0.875067   -0.252002   -0.056293
  H     -2.127189   -1.377921   -0.674986
  H     -3.514912   -1.623475    0.381780
  H     -3.652997   -0.557864   -1.016869
  H     -1.924426   -0.077629    1.452500
  H     -3.435355    0.741589    1.091017
  H     -1.818479    1.103504   -1.230713
  H     -2.257357    2.328822   -0.047276
  H     -0.266395    1.729345    1.330229
  H      0.149482    2.315003   -0.296617

 Total Charge           Charge          ....    0
 Multiplicity           Mult            ....    1
 Number of Electrons    NEL             ....   58
 Basis Dimension        Dim             ....  100

ORBITAL ENERGIES
----------------

  NO   OCC          E(Eh)            E(eV)
   0   2.0000      -9.934826      -270.3404
   1   2.0000      -9.898352      -269.3479
   2   2.0000      -9.886606      -269.0282
   3   2.0000      -9.870287      -268.5842
   4   2.0000      -6.594526      -179.4462
   5   2.0000      -4.666228      -126.9745
   6   2.0000      -4.649636      -126.5230
   7   2.0000      -4.649316      -126.5143
   8   2.0000      -1.802339       -49.0441
   9   2.0000      -1.798003       -48.9262
  10   2.0000      -1.797722       -48.9185
  11   2.0000      -1.784381       -48.5555
  12   2.0000      -1.784364       -48.5550
  13   2.0000      -0.734536       -19.9877
  14   2.0000      -0.671800       -18.2806
  15   2.0000      -0.618203       -16.8222
  16   2.0000      -0.557223       -15.1628
  17   2.0000      -0.517619       -14.0851
  18   2.0000      -0.424841       -11.5605
  19   2.0000      -0.411701       -11.2029
  20   2.0000      -0.392910       -10.6916
  21   2.0000      -0.358664        -9.7598
  22   2.0000      -0.339601        -9.2410
  23   2.0000      -0.318693        -8.6721
  24   2.0000      -0.298853        -8.1322
  25   2.0000      -0.292870        -7.9694
  26   2.0000      -0.282731        -7.6935
  27   2.0000      -0.218451        -5.9444
  28   2.0000      -0.217832        -5.9275
  29   0.0000      -0.055261        -1.5037
  30   0.0000       0.035624         0.9694
  31   0.0000       0.062211         1.6929
  32   0.0000       0.072069         1.9611
  33   0.0000       0.080929         2.2022

MULLIKEN ATOMIC CHARGES
-----------------------
   0 C :   -0.295813
   1 C :   -0.186817
   2 C :   -0.134161
   3 C :   -0.367599
   4 I :   -0.049312
   5 H :    0.117398
   6 H :    0.102268
   7 H :    0.102279
   8 H :    0.102835
   9 H :    0.088686
  10 H :    0.108838
  11 H :    0.100167
  12 H :    0.157747
  13 H :    0.153483
Sum of atomic charges:   -0.0000000

LOEWDIN ATOMIC CHARGES
----------------------
   0 C :   -0.343143
   1 C :   -0.240080
   2 C :   -0.243893
   3 C :   -0.327127
   4 I :    0.050708
   5 H :    0.117761
   6 H :    0.119359
   7 H :    0.116033
   8 H :    0.117069
   9 H :    0.118326
  10 H :    0.123177
  11 H :    0.130133
  12 H :    0.130682
  13 H :    0.130994

  Mayer bond orders larger than 0.100000
B(  0-C ,  1-C ) :   1.1590 B(  0-C ,  5-H ) :   0.9485 B(  0-C ,  6-H ) :   0.9516
B(  0-C ,  7-H ) :   0.9540 B(  1-C ,  2-C ) :   1.0753 B(  1-C ,  8-H ) :   0.9365
B(  1-C ,  9-H ) :   0.9307 B(  2-C ,  3-C ) :   1.1170 B(  2-C , 10-H ) :   0.9328
B(  2-C , 11-H ) :   0.9040 B(  3-C ,  4-I ) :   1.0323 B(  3-C , 12-H ) :   0.9218
B(  3-C , 13-H ) :   0.9222

Dispersion correction           -0.011496273
FINAL SINGLE POINT ENERGY      -455.114352842859

DIPOLE MOMENT
-------------

Method             : SCF
Type of density    : Electron Density
Multiplicity       :   1
Irrep              :   0
Energy             :  -455.1630417342029205 Eh
Relativity type    :
Basis              : AO
                                X                 Y                 Z
Electronic contribution:     80.673655551     -22.046301292      -4.914865457
Nuclear contribution   :    -81.171097356      22.581619409       5.012123252
                        -----------------------------------------
Total Dipole Moment    :     -0.497441805       0.535318117       0.097257795
                        -----------------------------------------
Magnitude (a.u.)       :      0.737206155
Magnitude (Debye)      :      1.873829130

Rotational constants in cm-1:             0.171301             0.042506             0.036052
Rotational constants in MHz :          5135.473285          1274.297136          1080.823628

                             ****ORCA TERMINATED NORMALLY****
TOTAL RUN TIME: 0 days 0 hours 0 minutes 13 seconds 288 msec
