                         Program Version 6.0.0  -   RELEASE  -
|  1> ! r2scan-3c def2/J RI DEFGRID2 scfconv6 printgap
|  2> %output
|  3>     printlevel normal
|  4> end
|  5> * xyz 0 1
|  6> C -3.256895262 -1.1773474053 0.3120944294
|  7> C -1.7561419479 -0.9206208056 0.2402543545
|  8> C -1.466721282 0.5339082215 -0.1185475666
|  9> C -0.0040370925 0.8801350787 -0.2116110007
| 10> O 0.4089753146 1.992201932 -0.4841788352
| 11> O 0.7972790932 -0.1433902947 0.031859322
| 12> C 2.2143860145 0.0892543666 -0.0332951615
| 13> C 2.9231292404 -1.2193872919 0.2565961197
| 14> H -3.7270454355 -0.966574221 -0.6452951523
| 15> H -3.45007751 -2.2151284881 0.5689883076
| 16> H -3.7170937947 -0.5446024099 1.0670123902
| 17> H -1.3062565555 -1.5737041707 -0.5083983241
| 18> H -1.2961414344 -1.153985314 1.201178646
| 19> H -1.9070390938 1.2079506561 0.6204700231
| 20> H -1.9164247325 0.7899627634 -1.0811339545
| 21> H 2.4564568481 0.4722714883 -1.0301610505
| 22> H 2.4713348644 0.8624999739 0.6981929657
| 23> H 3.9958981151 -1.0631952571 0.2135854043
| 24> H 2.6520783815 -1.5785549862 1.2447829839
| 25> H 2.6396633251 -1.9671000118 -0.4779589006
| 26> *
| 27>
| 28>                          ****END OF INPUT****

CARTESIAN COORDINATES (ANGSTROEM)
---------------------------------
  C     -3.256895   -1.177347    0.312094
  C     -1.756142   -0.920621    0.240254
  C     -1.466721    0.533908   -0.118548
  C     -0.004037    0.880135   -0.211611
  O      0.408975    1.992202   -0.484179
  O      0.797279   -0.143390    0.031859
  C      2.214386    0.089254   -0.033295
  C      2.923129   -1.219387    0.256596
  H     -3.727045   -0.966574   -0.645295
  H     -3.450078   -2.215128    0.568988
  H     -3.717094   -0.544602    1.067012
  H     -1.306257   -1.573704   -0.508398
  H     -1.296141   -1.153985    1.201179
  H     -1.907039    1.207951    0.620470
  H     -1.916425    0.789963   -1.081134
  H      2.456457    0.472271   -1.030161
  H      2.471335    0.862500    0.698193
  H      3.995898   -1.063195    0.213585
  H      2.652078   -1.578555    1.244783
  H      2.639663   -1.967100   -0.477959

 Total Charge           Charge          ....    0
 Multiplicity           Mult            ....    1
 Number of Electrons    NEL             ....   64
 Basis Dimension        Dim             ....  222

ORBITAL ENERGIES
----------------

  NO   OCC          E(Eh)            E(eV)
   0   2.0000     -18.998020      -516.9624
   1   2.0000     -18.922973      -514.9203
   2   2.0000     -10.150333      -276.2046
   3   2.0000     -10.092295      -274.6253
   4   2.0000     -10.042348      -273.2662
   5   2.0000     -10.032891      -273.0088
   6   2.0000     -10.031943      -272.9831
   7   2.0000     -10.021389      -272.6959
   8   2.0000      -1.072803       -29.1925
   9   2.0000      -0.970674       -26.4134
  10   2.0000      -0.775507       -21.1026
  11   2.0000      -0.742134       -20.1945
  12   2.0000      -0.680617       -18.5205
  13   2.0000      -0.613703       -16.6997
  14   2.0000      -0.569986       -15.5101
  15   2.0000      -0.535860       -14.5815
  16   2.0000      -0.470143       -12.7932
  17   2.0000      -0.460412       -12.5285
  18   2.0000      -0.441551       -12.0152
  19   2.0000      -0.430157       -11.7052
  20   2.0000      -0.394987       -10.7482
  21   2.0000      -0.387817       -10.5530
  22   2.0000      -0.375865       -10.2278
  23   2.0000      -0.361499        -9.8369
  24   2.0000      -0.358139        -9.7455
  25   2.0000      -0.336192        -9.1482
  26   2.0000      -0.324885        -8.8406
  27   2.0000      -0.322442        -8.7741
  28   2.0000      -0.309327        -8.4172
  29   2.0000      -0.305747        -8.3198
  30   2.0000      -0.269348        -7.3293
  31   2.0000      -0.229524        -6.2457
  32   0.0000      -0.012030        -0.3274
  33   0.0000       0.070048         1.9061
  34   0.0000       0.095262         2.5922
  35   0.0000       0.104651         2.8477
  36   0.0000       0.118456         3.2233

MULLIKEN ATOMIC CHARGES
-----------------------
   0 C :   -0.461663
   1 C :   -0.244634
   2 C :   -0.321686
   3 C :    0.337355
   4 O :   -0.413548
   5 O :   -0.133472
   6 C :   -0.148266
   7 C :   -0.443743
   8 H :    0.141658
   9 H :    0.148863
  10 H :    0.141642
  11 H :    0.147489
  12 H :    0.147451
  13 H :    0.167993
  14 H :    0.167987
  15 H :    0.158011
  16 H :    0.156823
  17 H :    0.148069
  18 H :    0.151793
  19 H :    0.151877
Sum of atomic charges:   -0.0000000

LOEWDIN ATOMIC CHARGES
----------------------
   0 C :   -0.422335
   1 C :   -0.298434
   2 C :   -0.229392
   3 C :    0.359795
   4 O :   -0.432599
   5 O :   -0.606702
   6 C :    0.036534
   7 C :   -0.386805
   8 H :    0.150477
   9 H :    0.151955
  10 H :    0.150480
  11 H :    0.160669
  12 H :    0.160628
  13 H :    0.183590
  14 H :    0.183611
  15 H :    0.180385
  16 H :    0.179812
  17 H :    0.159885
  18 H :    0.159235
  19 H :    0.159211

  Mayer bond orders larger than 0.100000
B(  0-C ,  1-C ) :   0.8911 B(  0-C ,  8-H ) :   0.9824 B(  0-C ,  9-H ) :   0.9753
B(  0-C , 10-H ) :   0.9824 B(  1-C ,  2-C ) :   0.9387 B(  1-C , 11-H ) :   0.9655
B(  1-C , 12-H ) :   0.9655 B(  2-C ,  3-C ) :   1.0112 B(  2-C , 13-H ) :   0.9486
B(  2-C , 14-H ) :   0.9480 B(  3-C ,  4-O ) :   1.8369 B(  3-C ,  5-O ) :   1.1077
B(  5-O ,  6-C ) :   0.8037 B(  6-C ,  7-C ) :   0.9441 B(  6-C , 15-H ) :   0.9528
B(  6-C , 16-H ) :   0.9518 B(  7-C , 17-H ) :   0.9684 B(  7-C , 18-H ) :   0.9719
B(  7-C , 19-H ) :   0.9723

Dispersion correction           -0.004907282
FINAL SINGLE POINT ENERGY      -386.234946867273

DIPOLE MOMENT
-------------

Method             : SCF
Type of density    : Electron Density
Multiplicity       :   1
Irrep              :   0
Energy             :  -386.2417046006134456 Eh
Relativity type    :
Basis              : AO
                                X                 Y                 Z
Electronic contribution:      2.983331635       6.310085980      -1.528756322
Nuclear contribution   :     -2.894789906      -7.224764180       1.748849880
                        -----------------------------------------
Total Dipole Moment    :      0.088541729      -0.914678199       0.220093558
                        -----------------------------------------
Magnitude (a.u.)       :      0.944942866
Magnitude (Debye)      :      2.401853888

Rotational constants in cm-1:             0.109097             0.035957             0.027741
Rotational constants in MHz :          3270.642121          1077.949391           831.646428

                             ****ORCA TERMINATED NORMALLY****
TOTAL RUN TIME: 0 days 0 hours 0 minutes 30 seconds 789 msec
