                         Program Version 6.0.0  -   RELEASE  -
|  1> ! r2scan-3c def2/J RI DEFGRID2 scfconv6 printgap
|  2> %output
|  3>     printlevel normal
|  4> end
|  5> %cpcm
|  6>     smd true
|  7>     smdsolvent "water"
|  8> end
|  9> * xyz 0 1
| 10> C -3.256895262 -1.1773474053 0.3120944294
| 11> C -1.7561419479 -0.9206208056 0.2402543545
| 12> C -1.466721282 0.5339082215 -0.1185475666
| 13> C -0.0040370925 0.8801350787 -0.2116110007
| 14> O 0.4089753146 1.992201932 -0.4841788352
| 15> O 0.7972790932 -0.1433902947 0.031859322
| 16> C 2.2143860145 0.0892543666 -0.0332951615
| 17> C 2.9231292404 -1.2193872919 0.2565961197
| 18> H -3.7270454355 -0.966574221 -0.6452951523
| 19> H -3.45007751 -2.2151284881 0.5689883076
| 20> H -3.7170937947 -0.5446024099 1.0670123902
| 21> H -1.3062565555 -1.5737041707 -0.5083983241
| 22> H -1.2961414344 -1.153985314 1.201178646
| 23> H -1.9070390938 1.2079506561 0.6204700231
| 24> H -1.9164247325 0.7899627634 -1.0811339545
| 25> H 2.4564568481 0.4722714883 -1.0301610505
| 26> H 2.4713348644 0.8624999739 0.6981929657
| 27> H 3.9958981151 -1.0631952571 0.2135854043
| 28> H 2.6520783815 -1.5785549862 1.2447829839
| 29> H 2.6396633251 -1.9671000118 -0.4779589006
| 30> *
| 31>
| 32>                          ****END OF INPUT****

CARTESIAN COORDINATES (ANGSTROEM)
---------------------------------
  C     -3.256895   -1.177347    0.312094
  C     -1.756142   -0.920621    0.240254
  C     -1.466721    0.533908   -0.118548
  C     -0.004037    0.880135   -0.211611
  O      0.408975    1.992202   -0.484179
  O      0.797279   -0.143390    0.031859
  C      2.214386    0.089254   -0.033295
  C      2.923129   -1.219387    0.256596
  H     -3.727045   -0.966574   -0.645295
  H     -3.450078   -2.215128    0.568988
  H     -3.717094   -0.544602    1.067012
  H     -1.306257   -1.573704   -0.508398
  H     -1.296141   -1.153985    1.201179
  H     -1.907039    1.207951    0.620470
  H     -1.916425    0.789963   -1.081134
  H      2.456457    0.472271   -1.030161
  H      2.471335    0.862500    0.698193
  H      3.995898   -1.063195    0.213585
  H      2.652078   -1.578555    1.244783
  H      2.639663   -1.967100   -0.477959

 Total Charge           Charge          ....    0
 Multiplicity           Mult            ....    1
 Number of Electrons    NEL             ....   64
 Basis Dimension        Dim             ....  222

ORBITAL ENERGIES
----------------

  NO   OCC          E(Eh)            E(eV)
   0   2.0000     -19.003759      -517.1186
   1   2.0000     -18.940564      -515.3990
   2   2.0000     -10.162022      -276.5227
   3   2.0000     -10.084520      -274.4137
   4   2.0000     -10.036166      -273.0980
   5   2.0000     -10.023481      -272.7528
   6   2.0000     -10.018971      -272.6301
   7   2.0000     -10.010167      -272.3905
   8   2.0000      -1.080298       -29.3964
   9   2.0000      -0.986063       -26.8321
  10   2.0000      -0.769604       -20.9420
  11   2.0000      -0.733367       -19.9559
  12   2.0000      -0.673568       -18.3287
  13   2.0000      -0.606570       -16.5056
  14   2.0000      -0.562991       -15.3198
  15   2.0000      -0.533727       -14.5235
  16   2.0000      -0.468130       -12.7385
  17   2.0000      -0.460128       -12.5207
  18   2.0000      -0.447207       -12.1691
  19   2.0000      -0.431946       -11.7538
  20   2.0000      -0.391152       -10.6438
  21   2.0000      -0.381704       -10.3867
  22   2.0000      -0.366828        -9.9819
  23   2.0000      -0.352970        -9.6048
  24   2.0000      -0.348643        -9.4871
  25   2.0000      -0.331298        -9.0151
  26   2.0000      -0.322680        -8.7806
  27   2.0000      -0.319771        -8.7014
  28   2.0000      -0.304738        -8.2924
  29   2.0000      -0.296512        -8.0685
  30   2.0000      -0.276571        -7.5259
  31   2.0000      -0.247118        -6.7244
  32   0.0000      -0.020632        -0.5614
  33   0.0000       0.075611         2.0575
  34   0.0000       0.105252         2.8641
  35   0.0000       0.112064         3.0494
  36   0.0000       0.125851         3.4246

MULLIKEN ATOMIC CHARGES
-----------------------
   0 C :   -0.510597
   1 C :   -0.254620
   2 C :   -0.329615
   3 C :    0.385758
   4 O :   -0.507663
   5 O :   -0.147051
   6 C :   -0.151915
   7 C :   -0.493614
   8 H :    0.155836
   9 H :    0.159306
  10 H :    0.155876
  11 H :    0.156826
  12 H :    0.157005
  13 H :    0.190469
  14 H :    0.190531
  15 H :    0.171828
  16 H :    0.171805
  17 H :    0.169657
  18 H :    0.164961
  19 H :    0.165216
Sum of atomic charges:   -0.0000000

LOEWDIN ATOMIC CHARGES
----------------------
   0 C :   -0.427914
   1 C :   -0.297243
   2 C :   -0.227424
   3 C :    0.371522
   4 O :   -0.499563
   5 O :   -0.605693
   6 C :    0.038593
   7 C :   -0.389629
   8 H :    0.154307
   9 H :    0.154667
  10 H :    0.154327
  11 H :    0.162390
  12 H :    0.162418
  13 H :    0.192691
  14 H :    0.192739
  15 H :    0.185012
  16 H :    0.184779
  17 H :    0.168571
  18 H :    0.162723
  19 H :    0.162727

  Mayer bond orders larger than 0.100000
B(  0-C ,  1-C ) :   0.8857 B(  0-C ,  8-H ) :   0.9802 B(  0-C ,  9-H ) :   0.9720
B(  0-C , 10-H ) :   0.9802 B(  1-C ,  2-C ) :   0.9258 B(  1-C , 11-H ) :   0.9661
B(  1-C , 12-H ) :   0.9662 B(  2-C ,  3-C ) :   1.0170 B(  2-C , 13-H ) :   0.9372
B(  2-C , 14-H ) :   0.9366 B(  3-C ,  4-O ) :   1.7610 B(  3-C ,  5-O ) :   1.1405
B(  5-O ,  6-C ) :   0.7887 B(  6-C ,  7-C ) :   0.9464 B(  6-C , 15-H ) :   0.9454
B(  6-C , 16-H ) :   0.9440 B(  7-C , 17-H ) :   0.9618 B(  7-C , 18-H ) :   0.9698
B(  7-C , 19-H ) :   0.9703

Dispersion correction           -0.004907282
FINAL SINGLE POINT ENERGY      -386.241144596412

DIPOLE MOMENT
-------------

Method             : SCF
Type of density    : Electron Density
Multiplicity       :   1
Irrep              :   0
Energy             :  -386.2479023297526624 Eh
Relativity type    :
Basis              : AO
                                X                 Y                 Z
Electronic contribution:      2.954168868       6.001079822      -1.453574796
Nuclear contribution   :     -2.894789906      -7.224764180       1.748849880
                        -----------------------------------------
Total Dipole Moment    :      0.059378962      -1.223684358       0.295275084
                        -----------------------------------------
Magnitude (a.u.)       :      1.260205001
Magnitude (Debye)      :      3.203186550

Rotational constants in cm-1:             0.109097             0.035957             0.027741
Rotational constants in MHz :          3270.642121          1077.949391           831.646428

                             ****ORCA TERMINATED NORMALLY****
TOTAL RUN TIME: 0 days 0 hours 0 minutes 37 seconds 248 msec
