                         Program Version 6.0.0  -   RELEASE  -
|  1> ! r2scan-3c def2/J RI DEFGRID2 scfconv6 printgap
|  2> %output
|  3>     printlevel normal
|  4> end
|  5> %cpcm
|  6>     smd true
|  7>     smdsolvent "water"
|  8> end
|  9> * xyz 0 1
| 10> C -3.3678618075 -0.9886748053 0.3850741534
| 11> C -1.8709612843 -0.7467968818 0.5404410026
| 12> C -1.3931389255 0.3499438039 -0.4068454845
| 13> C 0.0774507277 0.6643905576 -0.3159885631
| 14> O 0.60593479 1.5763099149 -0.9228362751
| 15> O 0.7342408285 -0.1495522448 0.4965895619
| 16> C 2.1506336098 0.0353227835 0.6537580853
| 17> C 2.9243607143 -0.7218298381 -0.4147459162
| 18> H -3.6960323125 -1.7700681766 1.0648403762
| 19> H -3.9266011475 -0.0827413795 0.6069676163
| 20> H -3.6018808965 -1.296001027 -0.6311899959
| 21> H -1.3253639926 -1.6677602696 0.3321638488
| 22> H -1.6492130393 -0.4574748351 1.5686495915
| 23> H -1.9323091731 1.2824931044 -0.2243196363
| 24> H -1.5930119249 0.0710108932 -1.4447275716
| 25> H 2.3714022208 1.1058974124 0.6026417219
| 26> H 2.3684178028 -0.3507348201 1.6500241829
| 27> H 2.6940170154 -0.3171526929 -1.3978313203
| 28> H 3.9884663671 -0.6157278346 -0.2309595516
| 29> H 2.6593592869 -1.7753885696 -0.3936164321
| 30> *
| 31>
| 32>                          ****END OF INPUT****

CARTESIAN COORDINATES (ANGSTROEM)
---------------------------------
  C     -3.367862   -0.988675    0.385074
  C     -1.870961   -0.746797    0.540441
  C     -1.393139    0.349944   -0.406845
  C      0.077451    0.664391   -0.315989
  O      0.605935    1.576310   -0.922836
  O      0.734241   -0.149552    0.496590
  C      2.150634    0.035323    0.653758
  C      2.924361   -0.721830   -0.414746
  H     -3.696032   -1.770068    1.064840
  H     -3.926601   -0.082741    0.606968
  H     -3.601881   -1.296001   -0.631190
  H     -1.325364   -1.667760    0.332164
  H     -1.649213   -0.457475    1.568650
  H     -1.932309    1.282493   -0.224320
  H     -1.593012    0.071011   -1.444728
  H      2.371402    1.105897    0.602642
  H      2.368418   -0.350735    1.650024
  H      2.694017   -0.317153   -1.397831
  H      3.988466   -0.615728   -0.230960
  H      2.659359   -1.775389   -0.393616

 Total Charge           Charge          ....    0
 Multiplicity           Mult            ....    1
 Number of Electrons    NEL             ....   64
 Basis Dimension        Dim             ....  222

ORBITAL ENERGIES
----------------

  NO   OCC          E(Eh)            E(eV)
   0   2.0000     -19.002979      -517.0974
   1   2.0000     -18.940276      -515.3911
   2   2.0000     -10.162279      -276.5297
   3   2.0000     -10.083535      -274.3869
   4   2.0000     -10.035804      -273.0881
   5   2.0000     -10.023346      -272.7491
   6   2.0000     -10.018416      -272.6150
   7   2.0000     -10.010111      -272.3890
   8   2.0000      -1.078974       -29.3604
   9   2.0000      -0.986638       -26.8478
  10   2.0000      -0.768930       -20.9237
  11   2.0000      -0.730489       -19.8776
  12   2.0000      -0.673482       -18.3264
  13   2.0000      -0.616579       -16.7780
  14   2.0000      -0.562630       -15.3099
  15   2.0000      -0.520984       -14.1767
  16   2.0000      -0.472449       -12.8560
  17   2.0000      -0.457083       -12.4379
  18   2.0000      -0.449069       -12.2198
  19   2.0000      -0.416286       -11.3277
  20   2.0000      -0.408118       -11.1054
  21   2.0000      -0.376937       -10.2570
  22   2.0000      -0.372190       -10.1278
  23   2.0000      -0.360177        -9.8009
  24   2.0000      -0.337998        -9.1974
  25   2.0000      -0.333440        -9.0734
  26   2.0000      -0.329831        -8.9752
  27   2.0000      -0.311908        -8.4874
  28   2.0000      -0.300435        -8.1753
  29   2.0000      -0.297244        -8.0884
  30   2.0000      -0.276379        -7.5207
  31   2.0000      -0.247193        -6.7265
  32   0.0000      -0.020127        -0.5477
  33   0.0000       0.077099         2.0980
  34   0.0000       0.098294         2.6747
  35   0.0000       0.115131         3.1329
  36   0.0000       0.129968         3.5366

MULLIKEN ATOMIC CHARGES
-----------------------
   0 C :   -0.511286
   1 C :   -0.249810
   2 C :   -0.342513
   3 C :    0.401225
   4 O :   -0.509786
   5 O :   -0.164350
   6 C :   -0.148350
   7 C :   -0.490992
   8 H :    0.159173
   9 H :    0.155875
  10 H :    0.155788
  11 H :    0.156162
  12 H :    0.156896
  13 H :    0.187720
  14 H :    0.193344
  15 H :    0.171774
  16 H :    0.174283
  17 H :    0.168622
  18 H :    0.170328
  19 H :    0.165898
Sum of atomic charges:    0.0000000

LOEWDIN ATOMIC CHARGES
----------------------
   0 C :   -0.428043
   1 C :   -0.296812
   2 C :   -0.226675
   3 C :    0.374261
   4 O :   -0.503824
   5 O :   -0.604823
   6 C :    0.034655
   7 C :   -0.392772
   8 H :    0.154622
   9 H :    0.154231
  10 H :    0.154279
  11 H :    0.162968
  12 H :    0.161798
  13 H :    0.191423
  14 H :    0.193563
  15 H :    0.189995
  16 H :    0.188977
  17 H :    0.162396
  18 H :    0.167890
  19 H :    0.161890

  Mayer bond orders larger than 0.100000
B(  0-C ,  1-C ) :   0.8838 B(  0-C ,  8-H ) :   0.9718 B(  0-C ,  9-H ) :   0.9799
B(  0-C , 10-H ) :   0.9809 B(  1-C ,  2-C ) :   0.9203 B(  1-C , 11-H ) :   0.9644
B(  1-C , 12-H ) :   0.9683 B(  2-C ,  3-C ) :   1.0247 B(  2-C , 13-H ) :   0.9468
B(  2-C , 14-H ) :   0.9270 B(  3-C ,  4-O ) :   1.7856 B(  3-C ,  5-O ) :   1.1080
B(  5-O ,  6-C ) :   0.7895 B(  6-C ,  7-C ) :   0.9327 B(  6-C , 15-H ) :   0.9628
B(  6-C , 16-H ) :   0.9532 B(  7-C , 17-H ) :   0.9698 B(  7-C , 18-H ) :   0.9597
B(  7-C , 19-H ) :   0.9703

Dispersion correction           -0.004998599
FINAL SINGLE POINT ENERGY      -386.240229378015

DIPOLE MOMENT
-------------

Method             : SCF
Type of density    : Electron Density
Multiplicity       :   1
Irrep              :   0
Energy             :  -386.2469848670899637 Eh
Relativity type    :
Basis              : AO
                                X                 Y                 Z
Electronic contribution:      3.344285899       4.501001508      -0.735384941
Nuclear contribution   :     -3.397634201      -5.489304937       1.403409006
                        -----------------------------------------
Total Dipole Moment    :     -0.053348301      -0.988303429       0.668024065
                        -----------------------------------------
Magnitude (a.u.)       :      1.194087878
Magnitude (Debye)      :      3.035130179

Rotational constants in cm-1:             0.136370             0.033598             0.029254
Rotational constants in MHz :          4088.273823          1007.244965           877.013152

                             ****ORCA TERMINATED NORMALLY****
TOTAL RUN TIME: 0 days 0 hours 0 minutes 34 seconds 459 msec
