                         Program Version 6.0.0  -   RELEASE  -
|  1> ! r2scan-3c def2/J RI DEFGRID2 scfconv6 printgap
|  2> %output
|  3>     printlevel normal
|  4> end
|  5> * xyz 0 1
|  6> C -3.1245560945 -1.1240076556 0.0292508066
|  7> C -1.9381785022 -0.2774012735 0.4747014306
|  8> C -1.3552165055 0.5274669534 -0.685101421
|  9> C -0.1647479343 1.3882379792 -0.2460271757
| 10> C 0.9792153015 0.5332713382 0.2347416579
| 11> O 1.434271109 0.5543617816 1.3603078565
| 12> O 1.435391631 -0.2548350031 -0.730024019
| 13> C 2.5165657318 -1.1481189672 -0.4495672385
| 14> H -3.9131061058 -0.49053089 -0.3695244113
| 15> H -2.8224612623 -1.8252039696 -0.7450495925
| 16> H -3.5260747952 -1.6880668658 0.8670167333
| 17> H -2.2535224186 0.4061908421 1.2659304389
| 18> H -1.1632300027 -0.9240969571 0.8948105103
| 19> H -2.1266414456 1.1820233755 -1.0928987343
| 20> H -1.0305561301 -0.1511308634 -1.4754610998
| 21> H -0.4516071324 2.0565916734 0.5657222937
| 22> H 0.1887094556 1.9755307049 -1.0940976124
| 23> H 2.1933635093 -2.1497978033 -0.7255355157
| 24> H 2.769768293 -1.102834301 0.610259286
| 25> H 3.3687046902 -0.8451023374 -1.0556498508
| 26> *
| 27>
| 28>                          ****END OF INPUT****

CARTESIAN COORDINATES (ANGSTROEM)
---------------------------------
  C     -3.124556   -1.124008    0.029251
  C     -1.938179   -0.277401    0.474701
  C     -1.355217    0.527467   -0.685101
  C     -0.164748    1.388238   -0.246027
  C      0.979215    0.533271    0.234742
  O      1.434271    0.554362    1.360308
  O      1.435392   -0.254835   -0.730024
  C      2.516566   -1.148119   -0.449567
  H     -3.913106   -0.490531   -0.369524
  H     -2.822461   -1.825204   -0.745050
  H     -3.526075   -1.688067    0.867017
  H     -2.253522    0.406191    1.265930
  H     -1.163230   -0.924097    0.894811
  H     -2.126641    1.182023   -1.092899
  H     -1.030556   -0.151131   -1.475461
  H     -0.451607    2.056592    0.565722
  H      0.188709    1.975531   -1.094098
  H      2.193364   -2.149798   -0.725536
  H      2.769768   -1.102834    0.610259
  H      3.368705   -0.845102   -1.055650

 Total Charge           Charge          ....    0
 Multiplicity           Mult            ....    1
 Number of Electrons    NEL             ....   64
 Basis Dimension        Dim             ....  222

ORBITAL ENERGIES
----------------

  NO   OCC          E(Eh)            E(eV)
   0   2.0000     -18.999414      -517.0003
   1   2.0000     -18.927888      -515.0540
   2   2.0000     -10.152825      -276.2724
   3   2.0000     -10.085642      -274.4443
   4   2.0000     -10.041659      -273.2474
   5   2.0000     -10.034929      -273.0643
   6   2.0000     -10.027672      -272.8668
   7   2.0000     -10.018298      -272.6118
   8   2.0000      -1.072998       -29.1978
   9   2.0000      -0.975565       -26.5465
  10   2.0000      -0.780225       -21.2310
  11   2.0000      -0.727262       -19.7898
  12   2.0000      -0.685658       -18.6577
  13   2.0000      -0.617206       -16.7950
  14   2.0000      -0.557563       -15.1721
  15   2.0000      -0.532932       -14.5018
  16   2.0000      -0.471649       -12.8342
  17   2.0000      -0.455072       -12.3831
  18   2.0000      -0.441661       -12.0182
  19   2.0000      -0.430162       -11.7053
  20   2.0000      -0.409718       -11.1490
  21   2.0000      -0.397974       -10.8294
  22   2.0000      -0.382630       -10.4119
  23   2.0000      -0.360987        -9.8229
  24   2.0000      -0.353368        -9.6156
  25   2.0000      -0.335169        -9.1204
  26   2.0000      -0.319394        -8.6911
  27   2.0000      -0.310132        -8.4391
  28   2.0000      -0.301129        -8.1941
  29   2.0000      -0.297471        -8.0946
  30   2.0000      -0.271833        -7.3969
  31   2.0000      -0.234311        -6.3759
  32   0.0000      -0.014568        -0.3964
  33   0.0000       0.063314         1.7229
  34   0.0000       0.094208         2.5635
  35   0.0000       0.102993         2.8026
  36   0.0000       0.116730         3.1764

MULLIKEN ATOMIC CHARGES
-----------------------
   0 C :   -0.470287
   1 C :   -0.240620
   2 C :   -0.274632
   3 C :   -0.310686
   4 C :    0.377735
   5 O :   -0.430771
   6 O :   -0.188884
   7 C :   -0.300635
   8 H :    0.140320
   9 H :    0.142414
  10 H :    0.148952
  11 H :    0.143762
  12 H :    0.146573
  13 H :    0.146229
  14 H :    0.156782
  15 H :    0.165712
  16 H :    0.160994
  17 H :    0.147517
  18 H :    0.191016
  19 H :    0.148509
Sum of atomic charges:   -0.0000000

LOEWDIN ATOMIC CHARGES
----------------------
   0 C :   -0.422288
   1 C :   -0.307231
   2 C :   -0.287309
   3 C :   -0.227073
   4 C :    0.350170
   5 O :   -0.437644
   6 O :   -0.606330
   7 C :   -0.046065
   8 H :    0.150056
   9 H :    0.150056
  10 H :    0.151589
  11 H :    0.154291
  12 H :    0.157805
  13 H :    0.156174
  14 H :    0.166146
  15 H :    0.178155
  16 H :    0.179655
  17 H :    0.172948
  18 H :    0.193832
  19 H :    0.173063

  Mayer bond orders larger than 0.100000
B(  0-C ,  1-C ) :   0.8996 B(  0-C ,  8-H ) :   0.9803 B(  0-C ,  9-H ) :   0.9856
B(  0-C , 10-H ) :   0.9742 B(  1-C ,  2-C ) :   0.9314 B(  1-C , 11-H ) :   0.9644
B(  1-C , 12-H ) :   0.9597 B(  2-C ,  3-C ) :   0.8864 B(  2-C , 13-H ) :   0.9657
B(  2-C , 14-H ) :   0.9818 B(  3-C ,  4-C ) :   0.9707 B(  3-C , 15-H ) :   0.9991
B(  3-C , 16-H ) :   0.9508 B(  4-C ,  5-O ) :   1.8541 B(  4-C ,  6-O ) :   1.0379
B(  6-O ,  7-C ) :   0.8399 B(  7-C , 17-H ) :   0.9651 B(  7-C , 18-H ) :   0.9682
B(  7-C , 19-H ) :   0.9642

Dispersion correction           -0.005176948
FINAL SINGLE POINT ENERGY      -386.229316096367

DIPOLE MOMENT
-------------

Method             : SCF
Type of density    : Electron Density
Multiplicity       :   1
Irrep              :   0
Energy             :  -386.2362093209542877 Eh
Relativity type    :
Basis              : AO
                                X                 Y                 Z
Electronic contribution:      8.015265708       3.050006837       1.436765450
Nuclear contribution   :     -8.182030390      -3.332080313      -2.199546481
                        -----------------------------------------
Total Dipole Moment    :     -0.166764681      -0.282073476      -0.762781031
                        -----------------------------------------
Magnitude (a.u.)       :      0.830187212
Magnitude (Debye)      :      2.110168195

Rotational constants in cm-1:             0.110963             0.035994             0.033299
Rotational constants in MHz :          3326.590067          1079.060000           998.281381

                             ****ORCA TERMINATED NORMALLY****
TOTAL RUN TIME: 0 days 0 hours 0 minutes 25 seconds 893 msec
