                         Program Version 6.0.0  -   RELEASE  -
|  1> ! r2scan-3c def2/J RI DEFGRID2 scfconv6 printgap
|  2> %output
|  3>     printlevel normal
|  4> end
|  5> %cpcm
|  6>     smd true
|  7>     smdsolvent "water"
|  8> end
|  9> * xyz 0 1
| 10> C -3.1245560945 -1.1240076556 0.0292508066
| 11> C -1.9381785022 -0.2774012735 0.4747014306
| 12> C -1.3552165055 0.5274669534 -0.685101421
| 13> C -0.1647479343 1.3882379792 -0.2460271757
| 14> C 0.9792153015 0.5332713382 0.2347416579
| 15> O 1.434271109 0.5543617816 1.3603078565
| 16> O 1.435391631 -0.2548350031 -0.730024019
| 17> C 2.5165657318 -1.1481189672 -0.4495672385
| 18> H -3.9131061058 -0.49053089 -0.3695244113
| 19> H -2.8224612623 -1.8252039696 -0.7450495925
| 20> H -3.5260747952 -1.6880668658 0.8670167333
| 21> H -2.2535224186 0.4061908421 1.2659304389
| 22> H -1.1632300027 -0.9240969571 0.8948105103
| 23> H -2.1266414456 1.1820233755 -1.0928987343
| 24> H -1.0305561301 -0.1511308634 -1.4754610998
| 25> H -0.4516071324 2.0565916734 0.5657222937
| 26> H 0.1887094556 1.9755307049 -1.0940976124
| 27> H 2.1933635093 -2.1497978033 -0.7255355157
| 28> H 2.769768293 -1.102834301 0.610259286
| 29> H 3.3687046902 -0.8451023374 -1.0556498508
| 30> *
| 31>
| 32>                          ****END OF INPUT****

CARTESIAN COORDINATES (ANGSTROEM)
---------------------------------
  C     -3.124556   -1.124008    0.029251
  C     -1.938179   -0.277401    0.474701
  C     -1.355217    0.527467   -0.685101
  C     -0.164748    1.388238   -0.246027
  C      0.979215    0.533271    0.234742
  O      1.434271    0.554362    1.360308
  O      1.435392   -0.254835   -0.730024
  C      2.516566   -1.148119   -0.449567
  H     -3.913106   -0.490531   -0.369524
  H     -2.822461   -1.825204   -0.745050
  H     -3.526075   -1.688067    0.867017
  H     -2.253522    0.406191    1.265930
  H     -1.163230   -0.924097    0.894811
  H     -2.126641    1.182023   -1.092899
  H     -1.030556   -0.151131   -1.475461
  H     -0.451607    2.056592    0.565722
  H      0.188709    1.975531   -1.094098
  H      2.193364   -2.149798   -0.725536
  H      2.769768   -1.102834    0.610259
  H      3.368705   -0.845102   -1.055650

 Total Charge           Charge          ....    0
 Multiplicity           Mult            ....    1
 Number of Electrons    NEL             ....   64
 Basis Dimension        Dim             ....  222

ORBITAL ENERGIES
----------------

  NO   OCC          E(Eh)            E(eV)
   0   2.0000     -19.004022      -517.1257
   1   2.0000     -18.943035      -515.4662
   2   2.0000     -10.162721      -276.5417
   3   2.0000     -10.075115      -274.1578
   4   2.0000     -10.035626      -273.0833
   5   2.0000     -10.026044      -272.8225
   6   2.0000     -10.019287      -272.6387
   7   2.0000     -10.008889      -272.3557
   8   2.0000      -1.079141       -29.3649
   9   2.0000      -0.988745       -26.9051
  10   2.0000      -0.773737       -21.0545
  11   2.0000      -0.721576       -19.6351
  12   2.0000      -0.678580       -18.4651
  13   2.0000      -0.610183       -16.6039
  14   2.0000      -0.550480       -14.9793
  15   2.0000      -0.529943       -14.4205
  16   2.0000      -0.469411       -12.7733
  17   2.0000      -0.456557       -12.4235
  18   2.0000      -0.451778       -12.2935
  19   2.0000      -0.422525       -11.4975
  20   2.0000      -0.403805       -10.9881
  21   2.0000      -0.393737       -10.7141
  22   2.0000      -0.375927       -10.2295
  23   2.0000      -0.358888        -9.7658
  24   2.0000      -0.350104        -9.5268
  25   2.0000      -0.327265        -8.9053
  26   2.0000      -0.319621        -8.6973
  27   2.0000      -0.305171        -8.3041
  28   2.0000      -0.292234        -7.9521
  29   2.0000      -0.290253        -7.8982
  30   2.0000      -0.277553        -7.5526
  31   2.0000      -0.249230        -6.7819
  32   0.0000      -0.022220        -0.6046
  33   0.0000       0.069429         1.8893
  34   0.0000       0.102012         2.7759
  35   0.0000       0.111410         3.0316
  36   0.0000       0.127571         3.4714

MULLIKEN ATOMIC CHARGES
-----------------------
   0 C :   -0.515161
   1 C :   -0.255118
   2 C :   -0.271023
   3 C :   -0.334899
   4 C :    0.409523
   5 O :   -0.516624
   6 O :   -0.203631
   7 C :   -0.314642
   8 H :    0.154057
   9 H :    0.155180
  10 H :    0.157906
  11 H :    0.155691
  12 H :    0.151115
  13 H :    0.164359
  14 H :    0.160579
  15 H :    0.176342
  16 H :    0.190400
  17 H :    0.175077
  18 H :    0.185197
  19 H :    0.175672
Sum of atomic charges:    0.0000000

LOEWDIN ATOMIC CHARGES
----------------------
   0 C :   -0.429901
   1 C :   -0.310133
   2 C :   -0.284603
   3 C :   -0.225691
   4 C :    0.358701
   5 O :   -0.499909
   6 O :   -0.606764
   7 C :   -0.040283
   8 H :    0.153650
   9 H :    0.153194
  10 H :    0.153559
  11 H :    0.156564
  12 H :    0.157432
  13 H :    0.163170
  14 H :    0.167174
  15 H :    0.181774
  16 H :    0.191060
  17 H :    0.184725
  18 H :    0.192185
  19 H :    0.184096

  Mayer bond orders larger than 0.100000
B(  0-C ,  1-C ) :   0.8945 B(  0-C ,  8-H ) :   0.9784 B(  0-C ,  9-H ) :   0.9830
B(  0-C , 10-H ) :   0.9712 B(  1-C ,  2-C ) :   0.9206 B(  1-C , 11-H ) :   0.9655
B(  1-C , 12-H ) :   0.9572 B(  2-C ,  3-C ) :   0.8751 B(  2-C , 13-H ) :   0.9621
B(  2-C , 14-H ) :   0.9807 B(  3-C ,  4-C ) :   0.9687 B(  3-C , 15-H ) :   0.9960
B(  3-C , 16-H ) :   0.9412 B(  4-C ,  5-O ) :   1.7832 B(  4-C ,  6-O ) :   1.0672
B(  6-O ,  7-C ) :   0.8273 B(  7-C , 17-H ) :   0.9558 B(  7-C , 18-H ) :   0.9649
B(  7-C , 19-H ) :   0.9550

Dispersion correction           -0.005176948
FINAL SINGLE POINT ENERGY      -386.233699865009

DIPOLE MOMENT
-------------

Method             : SCF
Type of density    : Electron Density
Multiplicity       :   1
Irrep              :   0
Energy             :  -386.2405930895960182 Eh
Relativity type    :
Basis              : AO
                                X                 Y                 Z
Electronic contribution:      7.938475279       2.983990565       1.080087432
Nuclear contribution   :     -8.182030390      -3.332080313      -2.199546481
                        -----------------------------------------
Total Dipole Moment    :     -0.243555111      -0.348089748      -1.119459048
                        -----------------------------------------
Magnitude (a.u.)       :      1.197361318
Magnitude (Debye)      :      3.043450603

Rotational constants in cm-1:             0.110963             0.035994             0.033299
Rotational constants in MHz :          3326.590067          1079.060000           998.281381

                             ****ORCA TERMINATED NORMALLY****
TOTAL RUN TIME: 0 days 0 hours 0 minutes 34 seconds 155 msec
