                         Program Version 6.0.0  -   RELEASE  -
|  1> ! pbe def2-sv(p) def2/J RI DEFGRID1 loosescf d4 GCP(DFT/SV(P)) printgap
|  2> %output
|  3>     printlevel normal
|  4> end
|  5> * xyz 0 1
|  6> C -2.7471808647 0.4175779307 1.0712786944
|  7> C -2.5212682089 -0.1055299681 -0.3421659052
|  8> C -1.2157007562 -0.8962895283 -0.4472231139
|  9> C -0.0128870184 -0.0017359568 -0.2866576489
| 10> O 0.1096776675 1.0972575783 -0.7854109183
| 11> O 0.9142996266 -0.5703528795 0.4761355169
| 12> C 2.1507131181 0.1305297878 0.6913538555
| 13> C 3.144498554 -0.1540693644 -0.4243744552
| 14> H -3.6846053294 0.9642093151 1.1279283027
| 15> H -2.7811524204 -0.4039725435 1.7829130724
| 16> H -1.9411970739 1.090296143 1.3586666891
| 17> H -2.477446725 0.7332250929 -1.0393769569
| 18> H -3.3507533042 -0.7512766795 -0.6310679871
| 19> H -1.141812514 -1.3508079781 -1.4375335971
| 20> H -1.164938702 -1.6835987385 0.3042020245
| 21> H 1.937886722 1.2021897156 0.7533105978
| 22> H 2.5131220011 -0.2403334462 1.6504977123
| 23> H 3.3044849046 -1.2247131423 -0.518642535
| 24> H 2.7657154358 0.2325684584 -1.3679527297
| 25> H 4.0880646713 0.3316590241 -0.198244314
| 26> *
| 27>
| 28>                          ****END OF INPUT****

CARTESIAN COORDINATES (ANGSTROEM)
---------------------------------
  C     -2.747181    0.417578    1.071279
  C     -2.521268   -0.105530   -0.342166
  C     -1.215701   -0.896290   -0.447223
  C     -0.012887   -0.001736   -0.286658
  O      0.109678    1.097258   -0.785411
  O      0.914300   -0.570353    0.476136
  C      2.150713    0.130530    0.691354
  C      3.144499   -0.154069   -0.424374
  H     -3.684605    0.964209    1.127928
  H     -2.781152   -0.403973    1.782913
  H     -1.941197    1.090296    1.358667
  H     -2.477447    0.733225   -1.039377
  H     -3.350753   -0.751277   -0.631068
  H     -1.141813   -1.350808   -1.437534
  H     -1.164939   -1.683599    0.304202
  H      1.937887    1.202190    0.753311
  H      2.513122   -0.240333    1.650498
  H      3.304485   -1.224713   -0.518643
  H      2.765715    0.232568   -1.367953
  H      4.088065    0.331659   -0.198244

 Total Charge           Charge          ....    0
 Multiplicity           Mult            ....    1
 Number of Electrons    NEL             ....   64
 Basis Dimension        Dim             ....  136

ORBITAL ENERGIES
----------------

  NO   OCC          E(Eh)            E(eV)
   0   2.0000     -18.797446      -511.5045
   1   2.0000     -18.732113      -509.7267
   2   2.0000     -10.005216      -272.2558
   3   2.0000      -9.946192      -270.6496
   4   2.0000      -9.896305      -269.2922
   5   2.0000      -9.888560      -269.0814
   6   2.0000      -9.886973      -269.0382
   7   2.0000      -9.875004      -268.7125
   8   2.0000      -1.003821       -27.3153
   9   2.0000      -0.909200       -24.7406
  10   2.0000      -0.726152       -19.7596
  11   2.0000      -0.696329       -18.9481
  12   2.0000      -0.636520       -17.3206
  13   2.0000      -0.590109       -16.0577
  14   2.0000      -0.530875       -14.4458
  15   2.0000      -0.492100       -13.3907
  16   2.0000      -0.452567       -12.3150
  17   2.0000      -0.433714       -11.8020
  18   2.0000      -0.422530       -11.4976
  19   2.0000      -0.396911       -10.8005
  20   2.0000      -0.391212       -10.6454
  21   2.0000      -0.373709       -10.1691
  22   2.0000      -0.362336        -9.8597
  23   2.0000      -0.349489        -9.5101
  24   2.0000      -0.337425        -9.1818
  25   2.0000      -0.329183        -8.9575
  26   2.0000      -0.303511        -8.2590
  27   2.0000      -0.297372        -8.0919
  28   2.0000      -0.295385        -8.0378
  29   2.0000      -0.287566        -7.8251
  30   2.0000      -0.255942        -6.9645
  31   2.0000      -0.218892        -5.9564
  32   0.0000      -0.020307        -0.5526
  33   0.0000       0.040983         1.1152
  34   0.0000       0.055210         1.5023
  35   0.0000       0.077451         2.1075
  36   0.0000       0.082348         2.2408

MULLIKEN ATOMIC CHARGES
-----------------------
   0 C :   -0.290005
   1 C :   -0.189540
   2 C :   -0.135199
   3 C :    0.095055
   4 O :   -0.211787
   5 O :   -0.234768
   6 C :   -0.014212
   7 C :   -0.304078
   8 H :    0.106848
   9 H :    0.097305
  10 H :    0.115749
  11 H :    0.107441
  12 H :    0.088212
  13 H :    0.114915
  14 H :    0.094733
  15 H :    0.107341
  16 H :    0.101156
  17 H :    0.112785
  18 H :    0.126084
  19 H :    0.111965
Sum of atomic charges:    0.0000000

LOEWDIN ATOMIC CHARGES
----------------------
   0 C :   -0.342217
   1 C :   -0.229472
   2 C :   -0.248553
   3 C :    0.037880
   4 O :   -0.173154
   5 O :   -0.066916
   6 C :   -0.113760
   7 C :   -0.356117
   8 H :    0.121318
   9 H :    0.116270
  10 H :    0.120944
  11 H :    0.125130
  12 H :    0.117488
  13 H :    0.143502
  14 H :    0.127793
  15 H :    0.118853
  16 H :    0.116695
  17 H :    0.124092
  18 H :    0.130169
  19 H :    0.130053

  Mayer bond orders larger than 0.100000
B(  0-C ,  1-C ) :   1.1549 B(  0-C ,  8-H ) :   0.9526 B(  0-C ,  9-H ) :   0.9538
B(  0-C , 10-H ) :   0.9508 B(  1-C ,  2-C ) :   1.1122 B(  1-C , 11-H ) :   0.9174
B(  1-C , 12-H ) :   0.9268 B(  2-C ,  3-C ) :   1.0182 B(  2-C , 13-H ) :   0.8900
B(  2-C , 14-H ) :   0.9110 B(  3-C ,  4-O ) :   2.0296 B(  3-C ,  5-O ) :   1.2210
B(  5-O ,  6-C ) :   0.9236 B(  6-C ,  7-C ) :   1.1726 B(  6-C , 15-H ) :   0.9136
B(  6-C , 16-H ) :   0.9373 B(  7-C , 17-H ) :   0.9493 B(  7-C , 18-H ) :   0.9464
B(  7-C , 19-H ) :   0.9446

Dispersion correction           -0.015184868
FINAL SINGLE POINT ENERGY      -385.458913068195

DIPOLE MOMENT
-------------

Method             : SCF
Type of density    : Electron Density
Multiplicity       :   1
Irrep              :   0
Energy             :  -385.5339533909186116 Eh
Relativity type    :
Basis              : AO
                                X                 Y                 Z
Electronic contribution:      2.053038134       0.505685522      -1.371506003
Nuclear contribution   :     -1.797947590      -1.024690813       1.669760382
                        -----------------------------------------
Total Dipole Moment    :      0.255090544      -0.519005291       0.298254379
                        -----------------------------------------
Magnitude (a.u.)       :      0.650686831
Magnitude (Debye)      :      1.653914486

Rotational constants in cm-1:             0.164023             0.032920             0.032414
Rotational constants in MHz :          4917.280670           986.924877           971.742499

                             ****ORCA TERMINATED NORMALLY****
TOTAL RUN TIME: 0 days 0 hours 0 minutes 10 seconds 436 msec
