                         Program Version 6.0.0  -   RELEASE  -
|  1> ! pbe def2-sv(p) def2/J RI DEFGRID1 loosescf d4 GCP(DFT/SV(P)) printgap
|  2> %output
|  3>     printlevel normal
|  4> end
|  5> * xyz 0 1
|  6> C -2.4219918417 -1.3705686086 -0.3510797837
|  7> C -2.5395521054 0.0955548363 0.0477494604
|  8> C -1.3096264799 0.5681451239 0.8254764772
|  9> C -0.0832833325 0.6149690428 -0.0505695032
| 10> O -0.0587126308 1.0255041458 -1.1927020538
| 11> O 0.9843376056 0.1603042934 0.5912521488
| 12> C 2.2556587195 0.1421100527 -0.081242841
| 13> C 2.9862289955 -1.1383843697 0.282170097
| 14> H -2.2998320073 -1.9982002064 0.5284834167
| 15> H -3.3129501036 -1.6907791737 -0.884426373
| 16> H -1.5627071225 -1.5166510656 -1.0028739327
| 17> H -3.425358088 0.2372483349 0.6672600039
| 18> H -2.6426101218 0.7105786333 -0.8481317329
| 19> H -1.1030321404 -0.0798517702 1.6766345948
| 20> H -1.475792178 1.5840888856 1.1901966018
| 21> H 2.0795131224 0.2203567208 -1.1587449108
| 22> H 2.8123992824 1.0219538365 0.2541882161
| 23> H 3.1068443845 -1.2019229954 1.3595668702
| 24> H 2.4249359263 -2.0036421197 -0.0595564057
| 25> H 3.9635126871 -1.1390839865 -0.1893160767
| 26> *
| 27>
| 28>                          ****END OF INPUT****

CARTESIAN COORDINATES (ANGSTROEM)
---------------------------------
  C     -2.421992   -1.370569   -0.351080
  C     -2.539552    0.095555    0.047749
  C     -1.309626    0.568145    0.825476
  C     -0.083283    0.614969   -0.050570
  O     -0.058713    1.025504   -1.192702
  O      0.984338    0.160304    0.591252
  C      2.255659    0.142110   -0.081243
  C      2.986229   -1.138384    0.282170
  H     -2.299832   -1.998200    0.528483
  H     -3.312950   -1.690779   -0.884426
  H     -1.562707   -1.516651   -1.002874
  H     -3.425358    0.237248    0.667260
  H     -2.642610    0.710579   -0.848132
  H     -1.103032   -0.079852    1.676635
  H     -1.475792    1.584089    1.190197
  H      2.079513    0.220357   -1.158745
  H      2.812399    1.021954    0.254188
  H      3.106844   -1.201923    1.359567
  H      2.424936   -2.003642   -0.059556
  H      3.963513   -1.139084   -0.189316

 Total Charge           Charge          ....    0
 Multiplicity           Mult            ....    1
 Number of Electrons    NEL             ....   64
 Basis Dimension        Dim             ....  136

ORBITAL ENERGIES
----------------

  NO   OCC          E(Eh)            E(eV)
   0   2.0000     -18.797503      -511.5061
   1   2.0000     -18.730839      -509.6920
   2   2.0000     -10.004919      -272.2477
   3   2.0000      -9.945487      -270.6305
   4   2.0000      -9.896091      -269.2863
   5   2.0000      -9.889624      -269.1103
   6   2.0000      -9.888377      -269.0764
   7   2.0000      -9.875196      -268.7177
   8   2.0000      -1.003458       -27.3055
   9   2.0000      -0.908210       -24.7136
  10   2.0000      -0.726480       -19.7685
  11   2.0000      -0.699456       -19.0332
  12   2.0000      -0.636318       -17.3151
  13   2.0000      -0.585403       -15.9296
  14   2.0000      -0.530201       -14.4275
  15   2.0000      -0.499916       -13.6034
  16   2.0000      -0.448759       -12.2114
  17   2.0000      -0.442843       -12.0504
  18   2.0000      -0.418946       -11.4001
  19   2.0000      -0.399082       -10.8596
  20   2.0000      -0.386708       -10.5229
  21   2.0000      -0.370270       -10.0756
  22   2.0000      -0.361085        -9.8256
  23   2.0000      -0.353271        -9.6130
  24   2.0000      -0.341188        -9.2842
  25   2.0000      -0.327484        -8.9113
  26   2.0000      -0.303704        -8.2642
  27   2.0000      -0.297120        -8.0851
  28   2.0000      -0.295277        -8.0349
  29   2.0000      -0.288236        -7.8433
  30   2.0000      -0.254761        -6.9324
  31   2.0000      -0.218132        -5.9357
  32   0.0000      -0.018801        -0.5116
  33   0.0000       0.036542         0.9943
  34   0.0000       0.053591         1.4583
  35   0.0000       0.074241         2.0202
  36   0.0000       0.083855         2.2818

MULLIKEN ATOMIC CHARGES
-----------------------
   0 C :   -0.290359
   1 C :   -0.188550
   2 C :   -0.137962
   3 C :    0.092726
   4 O :   -0.208472
   5 O :   -0.237774
   6 C :   -0.029062
   7 C :   -0.283627
   8 H :    0.096974
   9 H :    0.106977
  10 H :    0.114729
  11 H :    0.088084
  12 H :    0.107579
  13 H :    0.094074
  14 H :    0.115948
  15 H :    0.115924
  16 H :    0.103308
  17 H :    0.114400
  18 H :    0.113594
  19 H :    0.111490
Sum of atomic charges:   -0.0000000

LOEWDIN ATOMIC CHARGES
----------------------
   0 C :   -0.342429
   1 C :   -0.229582
   2 C :   -0.248426
   3 C :    0.036188
   4 O :   -0.172149
   5 O :   -0.068516
   6 C :   -0.113221
   7 C :   -0.351095
   8 H :    0.115992
   9 H :    0.121400
  10 H :    0.120524
  11 H :    0.117425
  12 H :    0.125355
  13 H :    0.127240
  14 H :    0.143953
  15 H :    0.119902
  16 H :    0.116142
  17 H :    0.125487
  18 H :    0.125953
  19 H :    0.129855

  Mayer bond orders larger than 0.100000
B(  0-C ,  1-C ) :   1.1552 B(  0-C ,  8-H ) :   0.9538 B(  0-C ,  9-H ) :   0.9527
B(  0-C , 10-H ) :   0.9509 B(  1-C ,  2-C ) :   1.1136 B(  1-C , 11-H ) :   0.9269
B(  1-C , 12-H ) :   0.9171 B(  2-C ,  3-C ) :   1.0143 B(  2-C , 13-H ) :   0.9115
B(  2-C , 14-H ) :   0.8907 B(  3-C ,  4-O ) :   2.0493 B(  3-C ,  5-O ) :   1.2172
B(  5-O ,  6-C ) :   0.9128 B(  6-C ,  7-C ) :   1.1622 B(  6-C , 15-H ) :   0.9108
B(  6-C , 16-H ) :   0.9357 B(  7-C , 17-H ) :   0.9493 B(  7-C , 18-H ) :   0.9520
B(  7-C , 19-H ) :   0.9448

Dispersion correction           -0.014843954
FINAL SINGLE POINT ENERGY      -385.457980462339

DIPOLE MOMENT
-------------

Method             : SCF
Type of density    : Electron Density
Multiplicity       :   1
Irrep              :   0
Energy             :  -385.5330616685212135 Eh
Relativity type    :
Basis              : AO
                                X                 Y                 Z
Electronic contribution:      1.650491585       5.166369906      -0.863509268
Nuclear contribution   :     -1.332615528      -5.476231610       1.429554091
                        -----------------------------------------
Total Dipole Moment    :      0.317876057      -0.309861704       0.566044823
                        -----------------------------------------
Magnitude (a.u.)       :      0.719351239
Magnitude (Debye)      :      1.828445540

Rotational constants in cm-1:             0.126372             0.034713             0.032151
Rotational constants in MHz :          3788.527456          1040.682606           963.855392

                             ****ORCA TERMINATED NORMALLY****
TOTAL RUN TIME: 0 days 0 hours 0 minutes 10 seconds 675 msec
