                         Program Version 6.0.0  -   RELEASE  -
|  1> ! r2scan-3c def2/J RI DEFGRID2 scfconv6 printgap
|  2> %output
|  3>     printlevel normal
|  4> end
|  5> * xyz 0 1
|  6> C 1.833583298 -0.1669562799 1.1688173932
|  7> C 1.3574278715 -0.3926236599 -0.2746046938
|  8> C 1.7348339547 0.7999891861 -1.1554655106
|  9> N -0.057118919 -0.699537958 -0.4220686789
| 10> C -1.0467490125 0.2448756159 0.0845716588
| 11> C -1.6048322496 -0.1437881428 1.4580979067
| 12> C -2.1882271065 0.3386123357 -0.9329332778
| 13> H 1.3802261357 0.7277609318 1.5895107376
| 14> H 1.5757200167 -1.0197732812 1.7940986183
| 15> H 2.9133170428 -0.0433271061 1.1851366846
| 16> H 1.8798679126 -1.2742816235 -0.6676413592
| 17> H 1.3438240367 1.7295393047 -0.7498931417
| 18> H 1.3304579672 0.6589802783 -2.1535915615
| 19> H 2.8161576451 0.8840035008 -1.2198425283
| 20> H -0.2561218245 -1.6254813733 -0.0629713042
| 21> H -0.575096087 1.2292083696 0.1599640878
| 22> H -2.326602189 0.5966553738 1.7939061213
| 23> H -2.1058780941 -1.1084144943 1.3957418506
| 24> H -0.8125027226 -0.2121566264 2.1993075157
| 25> H -1.7945366445 0.6233763905 -1.9040985276
| 26> H -2.9206864972 1.0764682191 -0.6164755941
| 27> H -2.6796576699 -0.6259009961 -1.0305270047
| 28> *
| 29>
| 30>                          ****END OF INPUT****

CARTESIAN COORDINATES (ANGSTROEM)
---------------------------------
  C      1.833583   -0.166956    1.168817
  C      1.357428   -0.392624   -0.274605
  C      1.734834    0.799989   -1.155466
  N     -0.057119   -0.699538   -0.422069
  C     -1.046749    0.244876    0.084572
  C     -1.604832   -0.143788    1.458098
  C     -2.188227    0.338612   -0.932933
  H      1.380226    0.727761    1.589511
  H      1.575720   -1.019773    1.794099
  H      2.913317   -0.043327    1.185137
  H      1.879868   -1.274282   -0.667641
  H      1.343824    1.729539   -0.749893
  H      1.330458    0.658980   -2.153592
  H      2.816158    0.884004   -1.219843
  H     -0.256122   -1.625481   -0.062971
  H     -0.575096    1.229208    0.159964
  H     -2.326602    0.596655    1.793906
  H     -2.105878   -1.108414    1.395742
  H     -0.812503   -0.212157    2.199308
  H     -1.794537    0.623376   -1.904099
  H     -2.920686    1.076468   -0.616476
  H     -2.679658   -0.625901   -1.030527

 Total Charge           Charge          ....    0
 Multiplicity           Mult            ....    1
 Number of Electrons    NEL             ....   58
 Basis Dimension        Dim             ....  213

ORBITAL ENERGIES
----------------

  NO   OCC          E(Eh)            E(eV)
   0   2.0000     -14.129681      -384.4882
   1   2.0000     -10.056561      -273.6529
   2   2.0000     -10.054225      -273.5894
   3   2.0000     -10.014919      -272.5198
   4   2.0000     -10.013191      -272.4728
   5   2.0000     -10.010995      -272.4130
   6   2.0000     -10.006104      -272.2799
   7   2.0000      -0.868395       -23.6302
   8   2.0000      -0.748762       -20.3749
   9   2.0000      -0.694992       -18.9117
  10   2.0000      -0.652133       -17.7454
  11   2.0000      -0.643547       -17.5118
  12   2.0000      -0.564982       -15.3739
  13   2.0000      -0.524477       -14.2717
  14   2.0000      -0.456872       -12.4321
  15   2.0000      -0.427624       -11.6362
  16   2.0000      -0.405507       -11.0344
  17   2.0000      -0.395183       -10.7535
  18   2.0000      -0.386227       -10.5098
  19   2.0000      -0.367675       -10.0049
  20   2.0000      -0.351682        -9.5698
  21   2.0000      -0.349733        -9.5167
  22   2.0000      -0.346540        -9.4298
  23   2.0000      -0.326295        -8.8789
  24   2.0000      -0.316582        -8.6146
  25   2.0000      -0.301694        -8.2095
  26   2.0000      -0.295256        -8.0343
  27   2.0000      -0.287298        -7.8178
  28   2.0000      -0.178439        -4.8556
  29   0.0000       0.074828         2.0362
  30   0.0000       0.096834         2.6350
  31   0.0000       0.114542         3.1168
  32   0.0000       0.122054         3.3213
  33   0.0000       0.129964         3.5365

MULLIKEN ATOMIC CHARGES
-----------------------
   0 C :   -0.467852
   1 C :   -0.092255
   2 C :   -0.475918
   3 N :   -0.256803
   4 C :   -0.020773
   5 C :   -0.497248
   6 C :   -0.467869
   7 H :    0.151978
   8 H :    0.148041
   9 H :    0.142743
  10 H :    0.149114
  11 H :    0.141256
  12 H :    0.162870
  13 H :    0.144061
  14 H :    0.223390
  15 H :    0.131372
  16 H :    0.147348
  17 H :    0.145643
  18 H :    0.156298
  19 H :    0.153527
  20 H :    0.138322
  21 H :    0.142755
Sum of atomic charges:   -0.0000000

LOEWDIN ATOMIC CHARGES
----------------------
   0 C :   -0.409641
   1 C :   -0.020844
   2 C :   -0.390295
   3 N :   -0.824166
   4 C :   -0.020679
   5 C :   -0.400626
   6 C :   -0.389422
   7 H :    0.153709
   8 H :    0.152660
   9 H :    0.153908
  10 H :    0.178307
  11 H :    0.150550
  12 H :    0.163405
  13 H :    0.153722
  14 H :    0.248927
  15 H :    0.175819
  16 H :    0.154583
  17 H :    0.152850
  18 H :    0.155791
  19 H :    0.158934
  20 H :    0.147959
  21 H :    0.154551

  Mayer bond orders larger than 0.100000
B(  0-C ,  1-C ) :   0.8767 B(  0-C ,  7-H ) :   0.9746 B(  0-C ,  8-H ) :   0.9723
B(  0-C ,  9-H ) :   0.9662 B(  1-C ,  2-C ) :   0.9638 B(  1-C ,  3-N ) :   0.9311
B(  1-C , 10-H ) :   0.9734 B(  2-C , 11-H ) :   0.9731 B(  2-C , 12-H ) :   0.9737
B(  2-C , 13-H ) :   0.9723 B(  3-N ,  4-C ) :   0.7967 B(  3-N , 14-H ) :   0.9155
B(  4-C ,  5-C ) :   0.9229 B(  4-C ,  6-C ) :   0.9690 B(  4-C , 15-H ) :   0.9434
B(  5-C , 16-H ) :   0.9779 B(  5-C , 17-H ) :   0.9794 B(  5-C , 18-H ) :   0.9699
B(  6-C , 19-H ) :   0.9753 B(  6-C , 20-H ) :   0.9865 B(  6-C , 21-H ) :   0.9727

Dispersion correction           -0.006157632
FINAL SINGLE POINT ENERGY      -292.315486259049

DIPOLE MOMENT
-------------

Method             : SCF
Type of density    : Electron Density
Multiplicity       :   1
Irrep              :   0
Energy             :  -292.3237589367911369 Eh
Relativity type    :
Basis              : AO
                                X                 Y                 Z
Electronic contribution:      0.316775682      -1.554994460      -1.286842055
Nuclear contribution   :     -0.217507063       1.512863938       1.604413608
                        -----------------------------------------
Total Dipole Moment    :      0.099268619      -0.042130522       0.317571553
                        -----------------------------------------
Magnitude (a.u.)       :      0.335381769
Magnitude (Debye)      :      0.852472709

Rotational constants in cm-1:             0.124475             0.058552             0.046130
Rotational constants in MHz :          3731.674303          1755.345253          1382.949216

                             ****ORCA TERMINATED NORMALLY****
TOTAL RUN TIME: 0 days 0 hours 0 minutes 25 seconds 701 msec
