                         Program Version 6.0.0  -   RELEASE  -
|  1> ! r2scan-3c def2/J RI DEFGRID2 scfconv6 printgap
|  2> %output
|  3>     printlevel normal
|  4> end
|  5> %cpcm
|  6>     smd true
|  7>     smdsolvent "water"
|  8> end
|  9> * xyz 0 1
| 10> C 1.833583298 -0.1669562799 1.1688173932
| 11> C 1.3574278715 -0.3926236599 -0.2746046938
| 12> C 1.7348339547 0.7999891861 -1.1554655106
| 13> N -0.057118919 -0.699537958 -0.4220686789
| 14> C -1.0467490125 0.2448756159 0.0845716588
| 15> C -1.6048322496 -0.1437881428 1.4580979067
| 16> C -2.1882271065 0.3386123357 -0.9329332778
| 17> H 1.3802261357 0.7277609318 1.5895107376
| 18> H 1.5757200167 -1.0197732812 1.7940986183
| 19> H 2.9133170428 -0.0433271061 1.1851366846
| 20> H 1.8798679126 -1.2742816235 -0.6676413592
| 21> H 1.3438240367 1.7295393047 -0.7498931417
| 22> H 1.3304579672 0.6589802783 -2.1535915615
| 23> H 2.8161576451 0.8840035008 -1.2198425283
| 24> H -0.2561218245 -1.6254813733 -0.0629713042
| 25> H -0.575096087 1.2292083696 0.1599640878
| 26> H -2.326602189 0.5966553738 1.7939061213
| 27> H -2.1058780941 -1.1084144943 1.3957418506
| 28> H -0.8125027226 -0.2121566264 2.1993075157
| 29> H -1.7945366445 0.6233763905 -1.9040985276
| 30> H -2.9206864972 1.0764682191 -0.6164755941
| 31> H -2.6796576699 -0.6259009961 -1.0305270047
| 32> *
| 33>
| 34>                          ****END OF INPUT****

CARTESIAN COORDINATES (ANGSTROEM)
---------------------------------
  C      1.833583   -0.166956    1.168817
  C      1.357428   -0.392624   -0.274605
  C      1.734834    0.799989   -1.155466
  N     -0.057119   -0.699538   -0.422069
  C     -1.046749    0.244876    0.084572
  C     -1.604832   -0.143788    1.458098
  C     -2.188227    0.338612   -0.932933
  H      1.380226    0.727761    1.589511
  H      1.575720   -1.019773    1.794099
  H      2.913317   -0.043327    1.185137
  H      1.879868   -1.274282   -0.667641
  H      1.343824    1.729539   -0.749893
  H      1.330458    0.658980   -2.153592
  H      2.816158    0.884004   -1.219843
  H     -0.256122   -1.625481   -0.062971
  H     -0.575096    1.229208    0.159964
  H     -2.326602    0.596655    1.793906
  H     -2.105878   -1.108414    1.395742
  H     -0.812503   -0.212157    2.199308
  H     -1.794537    0.623376   -1.904099
  H     -2.920686    1.076468   -0.616476
  H     -2.679658   -0.625901   -1.030527

 Total Charge           Charge          ....    0
 Multiplicity           Mult            ....    1
 Number of Electrons    NEL             ....   58
 Basis Dimension        Dim             ....  213

ORBITAL ENERGIES
----------------

  NO   OCC          E(Eh)            E(eV)
   0   2.0000     -14.123830      -384.3289
   1   2.0000     -10.049986      -273.4740
   2   2.0000     -10.047613      -273.4095
   3   2.0000     -10.005374      -272.2601
   4   2.0000     -10.004381      -272.2330
   5   2.0000     -10.003709      -272.2148
   6   2.0000     -10.002542      -272.1830
   7   2.0000      -0.862491       -23.4696
   8   2.0000      -0.742088       -20.1932
   9   2.0000      -0.688177       -18.7262
  10   2.0000      -0.645590       -17.5674
  11   2.0000      -0.637316       -17.3422
  12   2.0000      -0.558563       -15.1993
  13   2.0000      -0.517303       -14.0765
  14   2.0000      -0.449813       -12.2400
  15   2.0000      -0.420728       -11.4486
  16   2.0000      -0.399719       -10.8769
  17   2.0000      -0.388865       -10.5815
  18   2.0000      -0.378592       -10.3020
  19   2.0000      -0.360293        -9.8041
  20   2.0000      -0.344180        -9.3656
  21   2.0000      -0.342924        -9.3314
  22   2.0000      -0.339559        -9.2399
  23   2.0000      -0.319877        -8.7043
  24   2.0000      -0.310882        -8.4595
  25   2.0000      -0.295457        -8.0398
  26   2.0000      -0.287762        -7.8304
  27   2.0000      -0.279640        -7.6094
  28   2.0000      -0.176875        -4.8130
  29   0.0000       0.084675         2.3041
  30   0.0000       0.107942         2.9372
  31   0.0000       0.123596         3.3632
  32   0.0000       0.129181         3.5152
  33   0.0000       0.136570         3.7163

MULLIKEN ATOMIC CHARGES
-----------------------
   0 C :   -0.515423
   1 C :   -0.069677
   2 C :   -0.518401
   3 N :   -0.328759
   4 C :    0.017872
   5 C :   -0.540238
   6 C :   -0.539440
   7 H :    0.164930
   8 H :    0.159731
   9 H :    0.153958
  10 H :    0.160117
  11 H :    0.161085
  12 H :    0.158939
  13 H :    0.159490
  14 H :    0.270235
  15 H :    0.152004
  16 H :    0.159253
  17 H :    0.160877
  18 H :    0.163244
  19 H :    0.156591
  20 H :    0.154086
  21 H :    0.159527
Sum of atomic charges:   -0.0000000

LOEWDIN ATOMIC CHARGES
----------------------
   0 C :   -0.415213
   1 C :   -0.020404
   2 C :   -0.399635
   3 N :   -0.840810
   4 C :   -0.019060
   5 C :   -0.406043
   6 C :   -0.402317
   7 H :    0.157227
   8 H :    0.156300
   9 H :    0.156560
  10 H :    0.181474
  11 H :    0.155841
  12 H :    0.159770
  13 H :    0.157944
  14 H :    0.257977
  15 H :    0.181746
  16 H :    0.157227
  17 H :    0.157330
  18 H :    0.158124
  19 H :    0.156211
  20 H :    0.153054
  21 H :    0.156698

  Mayer bond orders larger than 0.100000
B(  0-C ,  1-C ) :   0.8795 B(  0-C ,  7-H ) :   0.9737 B(  0-C ,  8-H ) :   0.9692
B(  0-C ,  9-H ) :   0.9645 B(  1-C ,  2-C ) :   0.9430 B(  1-C ,  3-N ) :   0.9412
B(  1-C , 10-H ) :   0.9720 B(  2-C , 11-H ) :   0.9713 B(  2-C , 12-H ) :   0.9729
B(  2-C , 13-H ) :   0.9695 B(  3-N ,  4-C ) :   0.7873 B(  3-N , 14-H ) :   0.8992
B(  4-C ,  5-C ) :   0.9157 B(  4-C ,  6-C ) :   0.9342 B(  4-C , 15-H ) :   0.9449
B(  5-C , 16-H ) :   0.9763 B(  5-C , 17-H ) :   0.9774 B(  5-C , 18-H ) :   0.9671
B(  6-C , 19-H ) :   0.9777 B(  6-C , 20-H ) :   0.9816 B(  6-C , 21-H ) :   0.9759

Dispersion correction           -0.006157632
FINAL SINGLE POINT ENERGY      -292.317723982857

DIPOLE MOMENT
-------------

Method             : SCF
Type of density    : Electron Density
Multiplicity       :   1
Irrep              :   0
Energy             :  -292.3259966605992304 Eh
Relativity type    :
Basis              : AO
                                X                 Y                 Z
Electronic contribution:      0.348950623      -1.554825538      -1.072425171
Nuclear contribution   :     -0.217507063       1.512863938       1.604413608
                        -----------------------------------------
Total Dipole Moment    :      0.131443559      -0.041961600       0.531988437
                        -----------------------------------------
Magnitude (a.u.)       :      0.549590650
Magnitude (Debye)      :      1.396948415

Rotational constants in cm-1:             0.124475             0.058552             0.046130
Rotational constants in MHz :          3731.674303          1755.345253          1382.949216

                             ****ORCA TERMINATED NORMALLY****
TOTAL RUN TIME: 0 days 0 hours 0 minutes 33 seconds 888 msec
