                         Program Version 6.0.0  -   RELEASE  -
|  1> ! pbe def2-sv(p) def2/J RI DEFGRID1 loosescf d4 GCP(DFT/SV(P)) printgap
|  2> %output
|  3>     printlevel normal
|  4> end
|  5> * xyz 0 1
|  6> C -3.3557987498 -1.0050953668 0.3792242349
|  7> C -1.8512514847 -0.7901558011 0.4942869393
|  8> C -1.4023374824 0.3978220241 -0.351459828
|  9> C 0.0756737071 0.6855403247 -0.3005130932
| 10> O 0.605688968 1.5785539682 -0.9336103628
| 11> O 0.7357235733 -0.124222077 0.5132528967
| 12> C 2.1580103703 0.0397615151 0.6383543199
| 13> C 2.8960908437 -0.7614061509 -0.4231521075
| 14> H -3.6628341421 -1.8538249026 0.9840023709
| 15> H -3.8950687959 -0.1254142454 0.7218913751
| 16> H -3.6362143438 -1.1989348983 -0.6532399053
| 17> H -1.3252964562 -1.6871958259 0.1653997943
| 18> H -1.5824944545 -0.6138532444 1.5365525129
| 19> H -1.9143843919 1.3099526752 -0.0346575732
| 20> H -1.6611971085 0.2433361882 -1.4018288352
| 21> H 2.3963608083 1.10431341 0.5524231011
| 22> H 2.389046662 -0.3219521379 1.6407440888
| 23> H 3.9655825399 -0.6672059273 -0.2659436695
| 24> H 2.6151005471 -1.8093975699 -0.3643709354
| 25> H 2.6501564298 -0.3826683808 -1.4127934256
| 26> *
| 27>
| 28>                          ****END OF INPUT****

CARTESIAN COORDINATES (ANGSTROEM)
---------------------------------
  C     -3.355799   -1.005095    0.379224
  C     -1.851251   -0.790156    0.494287
  C     -1.402337    0.397822   -0.351460
  C      0.075674    0.685540   -0.300513
  O      0.605689    1.578554   -0.933610
  O      0.735724   -0.124222    0.513253
  C      2.158010    0.039762    0.638354
  C      2.896091   -0.761406   -0.423152
  H     -3.662834   -1.853825    0.984002
  H     -3.895069   -0.125414    0.721891
  H     -3.636214   -1.198935   -0.653240
  H     -1.325296   -1.687196    0.165400
  H     -1.582494   -0.613853    1.536553
  H     -1.914384    1.309953   -0.034658
  H     -1.661197    0.243336   -1.401829
  H      2.396361    1.104313    0.552423
  H      2.389047   -0.321952    1.640744
  H      3.965583   -0.667206   -0.265944
  H      2.615101   -1.809398   -0.364371
  H      2.650156   -0.382668   -1.412793

 Total Charge           Charge          ....    0
 Multiplicity           Mult            ....    1
 Number of Electrons    NEL             ....   64
 Basis Dimension        Dim             ....  136

ORBITAL ENERGIES
----------------

  NO   OCC          E(Eh)            E(eV)
   0   2.0000     -18.797619      -511.5092
   1   2.0000     -18.728576      -509.6305
   2   2.0000     -10.001788      -272.1625
   3   2.0000      -9.945336      -270.6264
   4   2.0000      -9.895941      -269.2823
   5   2.0000      -9.888266      -269.0734
   6   2.0000      -9.886070      -269.0136
   7   2.0000      -9.877342      -268.7761
   8   2.0000      -1.003852       -27.3162
   9   2.0000      -0.904861       -24.6225
  10   2.0000      -0.728309       -19.8183
  11   2.0000      -0.694322       -18.8935
  12   2.0000      -0.637851       -17.3568
  13   2.0000      -0.587982       -15.9998
  14   2.0000      -0.534464       -14.5435
  15   2.0000      -0.496525       -13.5111
  16   2.0000      -0.453352       -12.3363
  17   2.0000      -0.438999       -11.9458
  18   2.0000      -0.413809       -11.2603
  19   2.0000      -0.400929       -10.9098
  20   2.0000      -0.388859       -10.5814
  21   2.0000      -0.367189        -9.9917
  22   2.0000      -0.362343        -9.8599
  23   2.0000      -0.352316        -9.5870
  24   2.0000      -0.331315        -9.0155
  25   2.0000      -0.322640        -8.7795
  26   2.0000      -0.316148        -8.6028
  27   2.0000      -0.305684        -8.3181
  28   2.0000      -0.294342        -8.0094
  29   2.0000      -0.287875        -7.8335
  30   2.0000      -0.252594        -6.8734
  31   2.0000      -0.212998        -5.7960
  32   0.0000      -0.016967        -0.4617
  33   0.0000       0.034255         0.9321
  34   0.0000       0.051914         1.4127
  35   0.0000       0.075953         2.0668
  36   0.0000       0.078352         2.1321

MULLIKEN ATOMIC CHARGES
-----------------------
   0 C :   -0.256134
   1 C :   -0.183626
   2 C :   -0.201797
   3 C :    0.139688
   4 O :   -0.217348
   5 O :   -0.235530
   6 C :   -0.013201
   7 C :   -0.303372
   8 H :    0.104102
   9 H :    0.096995
  10 H :    0.096849
  11 H :    0.091084
  12 H :    0.093073
  13 H :    0.114736
  14 H :    0.113760
  15 H :    0.108754
  16 H :    0.100839
  17 H :    0.112350
  18 H :    0.112531
  19 H :    0.126248
Sum of atomic charges:   -0.0000000

LOEWDIN ATOMIC CHARGES
----------------------
   0 C :   -0.339772
   1 C :   -0.237048
   2 C :   -0.248109
   3 C :    0.036298
   4 O :   -0.179700
   5 O :   -0.058926
   6 C :   -0.112779
   7 C :   -0.355688
   8 H :    0.120114
   9 H :    0.117094
  10 H :    0.116977
  11 H :    0.117773
  12 H :    0.118670
  13 H :    0.142528
  14 H :    0.141392
  15 H :    0.119933
  16 H :    0.116621
  17 H :    0.130310
  18 H :    0.123803
  19 H :    0.130509

  Mayer bond orders larger than 0.100000
B(  0-C ,  1-C ) :   1.1500 B(  0-C ,  8-H ) :   0.9536 B(  0-C ,  9-H ) :   0.9538
B(  0-C , 10-H ) :   0.9537 B(  1-C ,  2-C ) :   1.1300 B(  1-C , 11-H ) :   0.9271
B(  1-C , 12-H ) :   0.9257 B(  2-C ,  3-C ) :   1.0293 B(  2-C , 13-H ) :   0.8970
B(  2-C , 14-H ) :   0.9008 B(  3-C ,  4-O ) :   2.0362 B(  3-C ,  5-O ) :   1.2268
B(  5-O ,  6-C ) :   0.9199 B(  6-C ,  7-C ) :   1.1744 B(  6-C , 15-H ) :   0.9123
B(  6-C , 16-H ) :   0.9369 B(  7-C , 17-H ) :   0.9446 B(  7-C , 18-H ) :   0.9494
B(  7-C , 19-H ) :   0.9462

Dispersion correction           -0.014788763
FINAL SINGLE POINT ENERGY      -385.456683720877

DIPOLE MOMENT
-------------

Method             : SCF
Type of density    : Electron Density
Multiplicity       :   1
Irrep              :   0
Energy             :  -385.5319837693032241 Eh
Relativity type    :
Basis              : AO
                                X                 Y                 Z
Electronic contribution:      3.458802742       4.987246095      -0.935748620
Nuclear contribution   :     -3.414965294      -5.610104069       1.371163420
                        -----------------------------------------
Total Dipole Moment    :      0.043837448      -0.622857975       0.435414800
                        -----------------------------------------
Magnitude (a.u.)       :      0.761222587
Magnitude (Debye)      :      1.934874049

Rotational constants in cm-1:             0.134049             0.033838             0.029359
Rotational constants in MHz :          4018.693775          1014.447042           880.157538

                             ****ORCA TERMINATED NORMALLY****
TOTAL RUN TIME: 0 days 0 hours 0 minutes 9 seconds 899 msec
