                         Program Version 6.0.0  -   RELEASE  -
|  1> ! pbe def2-sv(p) def2/J RI DEFGRID1 loosescf d4 GCP(DFT/SV(P)) printgap
|  2> %output
|  3>     printlevel normal
|  4> end
|  5> * xyz 0 1
|  6> C 2.291748654 1.1440017864 -0.0868819468
|  7> C 1.2562830147 0.0922418747 0.321990596
|  8> C 1.7723583321 -1.3072018779 -0.0438835209
|  9> N -0.0105396755 0.4569167211 -0.2835595108
| 10> C -1.2547396587 0.014311812 0.3184471362
| 11> C -1.7200071486 -1.3833106987 -0.1142794619
| 12> C -2.3363397733 1.0429051106 -0.0268303218
| 13> H 2.470257181 1.0957175937 -1.1582041883
| 14> H 1.9249277472 2.1362863187 0.1576213588
| 15> H 3.2308824657 0.9747296925 0.4323130488
| 16> H 1.1164725809 0.1451264925 1.4086741906
| 17> H 2.7648553238 -1.4578017823 0.3730418894
| 18> H 1.8324333403 -1.4123662113 -1.1256485499
| 19> H 1.1200119704 -2.0842218719 0.3454880004
| 20> H -0.0028720231 0.2607945198 -1.2779624585
| 21> H -1.1041923733 0.0184907653 1.4048790177
| 22> H -1.8136072766 -1.4265090631 -1.1979072473
| 23> H -1.0206358987 -2.1515538805 0.2040158445
| 24> H -2.6897860185 -1.6039352857 0.3244281839
| 25> H -2.0069306586 2.0356738249 0.2644180536
| 26> H -3.2624796236 0.8097591797 0.4910405623
| 27> H -2.5237352937 1.0416889108 -1.0977017811
| 28> *
| 29>
| 30>                          ****END OF INPUT****

CARTESIAN COORDINATES (ANGSTROEM)
---------------------------------
  C      2.291749    1.144002   -0.086882
  C      1.256283    0.092242    0.321991
  C      1.772358   -1.307202   -0.043884
  N     -0.010540    0.456917   -0.283560
  C     -1.254740    0.014312    0.318447
  C     -1.720007   -1.383311   -0.114279
  C     -2.336340    1.042905   -0.026830
  H      2.470257    1.095718   -1.158204
  H      1.924928    2.136286    0.157621
  H      3.230882    0.974730    0.432313
  H      1.116473    0.145126    1.408674
  H      2.764855   -1.457802    0.373042
  H      1.832433   -1.412366   -1.125649
  H      1.120012   -2.084222    0.345488
  H     -0.002872    0.260795   -1.277962
  H     -1.104192    0.018491    1.404879
  H     -1.813607   -1.426509   -1.197907
  H     -1.020636   -2.151554    0.204016
  H     -2.689786   -1.603935    0.324428
  H     -2.006931    2.035674    0.264418
  H     -3.262480    0.809759    0.491041
  H     -2.523735    1.041689   -1.097702

 Total Charge           Charge          ....    0
 Multiplicity           Mult            ....    1
 Number of Electrons    NEL             ....   58
 Basis Dimension        Dim             ....  128

ORBITAL ENERGIES
----------------

  NO   OCC          E(Eh)            E(eV)
   0   2.0000     -13.957796      -379.8110
   1   2.0000      -9.914375      -269.7839
   2   2.0000      -9.914343      -269.7830
   3   2.0000      -9.870188      -268.5815
   4   2.0000      -9.869981      -268.5758
   5   2.0000      -9.864400      -268.4240
   6   2.0000      -9.863794      -268.4075
   7   2.0000      -0.816783       -22.2258
   8   2.0000      -0.706535       -19.2258
   9   2.0000      -0.649059       -17.6618
  10   2.0000      -0.609618       -16.5885
  11   2.0000      -0.603528       -16.4228
  12   2.0000      -0.522755       -14.2249
  13   2.0000      -0.518925       -14.1207
  14   2.0000      -0.428881       -11.6704
  15   2.0000      -0.415988       -11.3196
  16   2.0000      -0.380281       -10.3480
  17   2.0000      -0.377854       -10.2819
  18   2.0000      -0.375051       -10.2057
  19   2.0000      -0.346991        -9.4421
  20   2.0000      -0.345876        -9.4118
  21   2.0000      -0.338882        -9.2214
  22   2.0000      -0.336040        -9.1441
  23   2.0000      -0.306748        -8.3470
  24   2.0000      -0.304713        -8.2917
  25   2.0000      -0.293274        -7.9804
  26   2.0000      -0.287561        -7.8249
  27   2.0000      -0.277001        -7.5376
  28   2.0000      -0.161810        -4.4031
  29   0.0000       0.032349         0.8803
  30   0.0000       0.048781         1.3274
  31   0.0000       0.056737         1.5439
  32   0.0000       0.077137         2.0990
  33   0.0000       0.091904         2.5008

MULLIKEN ATOMIC CHARGES
-----------------------
   0 C :   -0.220553
   1 C :   -0.092027
   2 C :   -0.249635
   3 N :   -0.318013
   4 C :   -0.091431
   5 C :   -0.250553
   6 C :   -0.216424
   7 H :    0.083775
   8 H :    0.100206
   9 H :    0.090485
  10 H :    0.068137
  11 H :    0.092331
  12 H :    0.084324
  13 H :    0.108239
  14 H :    0.187472
  15 H :    0.067819
  16 H :    0.085186
  17 H :    0.105678
  18 H :    0.093197
  19 H :    0.099358
  20 H :    0.089279
  21 H :    0.083151
Sum of atomic charges:   -0.0000000

LOEWDIN ATOMIC CHARGES
----------------------
   0 C :   -0.337477
   1 C :   -0.101611
   2 C :   -0.350267
   3 N :   -0.236227
   4 C :   -0.101587
   5 C :   -0.349703
   6 C :   -0.337486
   7 H :    0.113442
   8 H :    0.118928
   9 H :    0.114848
  10 H :    0.111174
  11 H :    0.118688
  12 H :    0.113801
  13 H :    0.114886
  14 H :    0.203383
  15 H :    0.111291
  16 H :    0.113913
  17 H :    0.114786
  18 H :    0.119003
  19 H :    0.118600
  20 H :    0.114201
  21 H :    0.113414

  Mayer bond orders larger than 0.100000
B(  0-C ,  1-C ) :   1.1140 B(  0-C ,  7-H ) :   0.9495 B(  0-C ,  8-H ) :   0.9486
B(  0-C ,  9-H ) :   0.9469 B(  1-C ,  2-C ) :   1.0984 B(  1-C ,  3-N ) :   1.0573
B(  1-C , 10-H ) :   0.9026 B(  2-C , 11-H ) :   0.9408 B(  2-C , 12-H ) :   0.9441
B(  2-C , 13-H ) :   0.9401 B(  3-N ,  4-C ) :   1.0537 B(  3-N , 14-H ) :   0.8726
B(  4-C ,  5-C ) :   1.1035 B(  4-C ,  6-C ) :   1.1122 B(  4-C , 15-H ) :   0.9019
B(  5-C , 16-H ) :   0.9434 B(  5-C , 17-H ) :   0.9406 B(  5-C , 18-H ) :   0.9414
B(  6-C , 19-H ) :   0.9489 B(  6-C , 20-H ) :   0.9467 B(  6-C , 21-H ) :   0.9492

Dispersion correction           -0.017326863
FINAL SINGLE POINT ENERGY      -291.671665509231

DIPOLE MOMENT
-------------

Method             : SCF
Type of density    : Electron Density
Multiplicity       :   1
Irrep              :   0
Energy             :  -291.7508967626868639 Eh
Relativity type    :
Basis              : AO
                                X                 Y                 Z
Electronic contribution:     -0.020625837       1.209274472       0.395080092
Nuclear contribution   :      0.033342340      -1.515563247      -0.425133823
                        -----------------------------------------
Total Dipole Moment    :      0.012716503      -0.306288775      -0.030053730
                        -----------------------------------------
Magnitude (a.u.)       :      0.308022321
Magnitude (Debye)      :      0.782930519

Rotational constants in cm-1:             0.138678             0.052071             0.040734
Rotational constants in MHz :          4157.455855          1561.039467          1221.183758

                             ****ORCA TERMINATED NORMALLY****
TOTAL RUN TIME: 0 days 0 hours 0 minutes 10 seconds 381 msec
