                         Program Version 6.0.1  -  RELEASE   -
|  1> ! pbe def2-sv(p) def2/J RI DEFGRID1 loosescf d4 GCP(DFT/SV(P)) printgap
|  2> %output
|  3>     printlevel normal
|  4> end
|  5> * xyz 0 1
|  6> C -3.7463524589 0.5396687881 -1.8026260603
|  7> C -3.2839222889 -0.4280149654 -0.7121498367
|  8> H -3.5700922762 -1.4521122069 -0.9617526283
|  9> C -1.784025099 -0.3686107209 -0.5256439184
| 10> C -0.9826082187 -1.461943156 -0.8277480781
| 11> C 0.388976172 -1.3955961621 -0.674651991
| 12> C 1.0164463522 -0.2393589924 -0.2137833419
| 13> C 0.1873857886 0.8359967755 0.0903582668
| 14> C -1.1832668473 0.7915214143 -0.0539883756
| 15> F 0.729857805 1.9884507162 0.5851553093
| 16> C 2.4783086768 -0.1806108533 -0.0565463932
| 17> C 3.1577656292 -1.2441213971 0.5336990015
| 18> C 4.5316743649 -1.2024473353 0.6800272476
| 19> C 5.2463994534 -0.1028686061 0.2336475039
| 20> C 4.5791367216 0.9566187647 -0.3579290189
| 21> C 3.2040636409 0.9210967012 -0.5014612909
| 22> C -3.9104099011 -0.0854637254 0.625189553
| 23> O -4.1344246445 1.0367242713 1.0213404087
| 24> O -4.1579595283 -1.1658184972 1.3453171183
| 25> H -4.8099951844 0.415631058 -1.9875501224
| 26> H -3.5692973345 1.5657865457 -1.4920509312
| 27> H -3.2002757636 0.3470387787 -2.7212651161
| 28> H -1.4341270573 -2.3717539371 -1.1905993394
| 29> H 0.9990108568 -2.247478849 -0.9304701741
| 30> H -1.7713565495 1.6543060672 0.2184447019
| 31> H 2.6006913269 -2.094816347 0.8963735189
| 32> H 5.046747844 -2.0292907234 1.1451966876
| 33> H 6.3192370707 -0.0709368761 0.3472541439
| 34> H 5.1305694565 1.8153646619 -0.7100648468
| 35> H 2.6915248214 1.7473039248 -0.9714818877
| 36> H -4.5285974326 -0.9629837762 2.2267678506
| 37> *
| 38>
| 39>                          ****END OF INPUT****

CARTESIAN COORDINATES (ANGSTROEM)
---------------------------------
  C     -3.746352    0.539669   -1.802626
  C     -3.283922   -0.428015   -0.712150
  H     -3.570092   -1.452112   -0.961753
  C     -1.784025   -0.368611   -0.525644
  C     -0.982608   -1.461943   -0.827748
  C      0.388976   -1.395596   -0.674652
  C      1.016446   -0.239359   -0.213783
  C      0.187386    0.835997    0.090358
  C     -1.183267    0.791521   -0.053988
  F      0.729858    1.988451    0.585155
  C      2.478309   -0.180611   -0.056546
  C      3.157766   -1.244121    0.533699
  C      4.531674   -1.202447    0.680027
  C      5.246399   -0.102869    0.233648
  C      4.579137    0.956619   -0.357929
  C      3.204064    0.921097   -0.501461
  C     -3.910410   -0.085464    0.625190
  O     -4.134425    1.036724    1.021340
  O     -4.157960   -1.165818    1.345317
  H     -4.809995    0.415631   -1.987550
  H     -3.569297    1.565787   -1.492051
  H     -3.200276    0.347039   -2.721265
  H     -1.434127   -2.371754   -1.190599
  H      0.999011   -2.247479   -0.930470
  H     -1.771357    1.654306    0.218445
  H      2.600691   -2.094816    0.896374
  H      5.046748   -2.029291    1.145197
  H      6.319237   -0.070937    0.347254
  H      5.130569    1.815365   -0.710065
  H      2.691525    1.747304   -0.971482
  H     -4.528597   -0.962984    2.226768

 Total Charge           Charge          ....    0
 Multiplicity           Mult            ....    1
 Number of Electrons    NEL             ....  128
 Basis Dimension        Dim             ....  278

ORBITAL ENERGIES
----------------

  NO   OCC          E(Eh)            E(eV)
   0   2.0000     -24.268339      -660.3751
   1   2.0000     -18.807039      -511.7655
   2   2.0000     -18.744965      -510.0764
   3   2.0000     -10.019028      -272.6316
   4   2.0000      -9.975221      -271.4396
   5   2.0000      -9.920022      -269.9375
   6   2.0000      -9.918173      -269.8872
   7   2.0000      -9.911622      -269.7090
   8   2.0000      -9.908306      -269.6187
   9   2.0000      -9.903376      -269.4845
  10   2.0000      -9.898754      -269.3588
  11   2.0000      -9.897912      -269.3359
  12   2.0000      -9.895290      -269.2645
  13   2.0000      -9.894667      -269.2476
  14   2.0000      -9.893938      -269.2278
  15   2.0000      -9.893611      -269.2188
  16   2.0000      -9.893273      -269.2096
  17   2.0000      -9.887919      -269.0640
  18   2.0000      -1.092923       -29.7400
  19   2.0000      -1.016150       -27.6508
  20   2.0000      -0.919364       -25.0172
  21   2.0000      -0.799807       -21.7639
  22   2.0000      -0.779090       -21.2001
  23   2.0000      -0.740172       -20.1411
  24   2.0000      -0.696393       -18.9498
  25   2.0000      -0.678113       -18.4524
  26   2.0000      -0.671949       -18.2847
  27   2.0000      -0.647988       -17.6327
  28   2.0000      -0.619615       -16.8606
  29   2.0000      -0.577076       -15.7030
  30   2.0000      -0.563526       -15.3343
  31   2.0000      -0.540314       -14.7027
  32   2.0000      -0.535559       -14.5733
  33   2.0000      -0.524550       -14.2737
  34   2.0000      -0.487345       -13.2613
  35   2.0000      -0.467887       -12.7318
  36   2.0000      -0.462821       -12.5940
  37   2.0000      -0.437910       -11.9161
  38   2.0000      -0.427997       -11.6464
  39   2.0000      -0.419271       -11.4089
  40   2.0000      -0.416627       -11.3370
  41   2.0000      -0.408900       -11.1267
  42   2.0000      -0.400542       -10.8993
  43   2.0000      -0.393465       -10.7067
  44   2.0000      -0.390268       -10.6197
  45   2.0000      -0.387436       -10.5427
  46   2.0000      -0.375445       -10.2164
  47   2.0000      -0.363874        -9.9015
  48   2.0000      -0.359167        -9.7734
  49   2.0000      -0.346734        -9.4351
  50   2.0000      -0.339964        -9.2509
  51   2.0000      -0.334133        -9.0922
  52   2.0000      -0.325476        -8.8566
  53   2.0000      -0.317570        -8.6415
  54   2.0000      -0.316559        -8.6140
  55   2.0000      -0.311652        -8.4805
  56   2.0000      -0.302064        -8.2196
  57   2.0000      -0.292442        -7.9577
  58   2.0000      -0.280385        -7.6297
  59   2.0000      -0.251911        -6.8549
  60   2.0000      -0.231774        -6.3069
  61   2.0000      -0.229639        -6.2488
  62   2.0000      -0.228842        -6.2271
  63   2.0000      -0.207686        -5.6514
  64   0.0000      -0.064174        -1.7463
  65   0.0000      -0.040581        -1.1043
  66   0.0000      -0.036346        -0.9890
  67   0.0000      -0.028385        -0.7724
  68   0.0000      -0.007515        -0.2045

MULLIKEN ATOMIC CHARGES
-----------------------
   0 C :   -0.221925
   1 C :   -0.117064
   2 H :    0.076891
   3 C :    0.102103
   4 C :   -0.102067
   5 C :   -0.119091
   6 C :    0.030062
   7 C :    0.273376
   8 C :   -0.230560
   9 F :   -0.170873
  10 C :    0.112461
  11 C :   -0.111124
  12 C :   -0.049294
  13 C :   -0.045483
  14 C :   -0.052284
  15 C :   -0.096002
  16 C :    0.111190
  17 O :   -0.188714
  18 O :   -0.279718
  19 H :    0.107867
  20 H :    0.124565
  21 H :    0.110431
  22 H :    0.039534
  23 H :    0.049922
  24 H :    0.067817
  25 H :    0.048004
  26 H :    0.052896
  27 H :    0.054735
  28 H :    0.054439
  29 H :    0.050724
  30 H :    0.317182
Sum of atomic charges:    0.0000000

LOEWDIN ATOMIC CHARGES
----------------------
   0 C :   -0.316405
   1 C :   -0.153498
   2 H :    0.133069
   3 C :   -0.021815
   4 C :   -0.130623
   5 C :   -0.103703
   6 C :   -0.055109
   7 C :    0.081979
   8 C :   -0.142240
   9 F :   -0.054490
  10 C :   -0.028205
  11 C :   -0.114187
  12 C :   -0.121108
  13 C :   -0.122367
  14 C :   -0.119891
  15 C :   -0.107954
  16 C :    0.037448
  17 O :   -0.167113
  18 O :   -0.196110
  19 H :    0.124432
  20 H :    0.129587
  21 H :    0.126033
  22 H :    0.125158
  23 H :    0.129412
  24 H :    0.142731
  25 H :    0.124990
  26 H :    0.124357
  27 H :    0.124079
  28 H :    0.125055
  29 H :    0.125998
  30 H :    0.300489

  Mayer bond orders larger than 0.100000
B(  0-C ,  1-C ) :   1.1023 B(  0-C , 19-H ) :   0.9494 B(  0-C , 20-H ) :   0.9364
B(  0-C , 21-H ) :   0.9486 B(  1-C ,  2-H ) :   0.8708 B(  1-C ,  3-C ) :   1.0132
B(  1-C , 16-C ) :   0.9245 B(  3-C ,  4-C ) :   1.3839 B(  3-C ,  8-C ) :   1.3078
B(  4-C ,  5-C ) :   1.3456 B(  4-C , 22-H ) :   0.9647 B(  5-C ,  6-C ) :   1.3678
B(  5-C , 23-H ) :   0.9571 B(  6-C ,  7-C ) :   1.3303 B(  6-C , 10-C ) :   0.9728
B(  7-C ,  8-C ) :   1.3271 B(  7-C ,  9-F ) :   1.1071 B(  8-C , 24-H ) :   0.9535
B( 10-C , 11-C ) :   1.3793 B( 10-C , 15-C ) :   1.3785 B( 11-C , 12-C ) :   1.3716
B( 11-C , 25-H ) :   0.9585 B( 12-C , 13-C ) :   1.3768 B( 12-C , 26-H ) :   0.9636
B( 13-C , 14-C ) :   1.3740 B( 13-C , 27-H ) :   0.9655 B( 14-C , 15-C ) :   1.3755
B( 14-C , 28-H ) :   0.9631 B( 15-C , 29-H ) :   0.9606 B( 16-C , 17-O ) :   2.0712
B( 16-C , 18-O ) :   1.3120 B( 18-O , 30-H ) :   0.8187

Dispersion correction           -0.040039490
FINAL SINGLE POINT ENERGY      -828.019275763250

DIPOLE MOMENT
-------------

Method             : SCF
Type of density    : Electron Density
Multiplicity       :   1
Irrep              :   0
Energy             :  -828.1092338265007129 Eh
Relativity type    :
Basis              : AO
                                X                 Y                 Z
Electronic contribution:      0.730819822       4.356240482       6.111486195
Nuclear contribution   :     -0.889043554      -5.300411724      -6.259227477
                        -----------------------------------------
Total Dipole Moment    :     -0.158223732      -0.944171241      -0.147741283
                        -----------------------------------------
Magnitude (a.u.)       :      0.968670000
Magnitude (Debye)      :      2.462163469

Rotational constants in cm-1:             0.038426             0.006430             0.006150
Rotational constants in MHz :          1151.973890           192.774075           184.366187

                             ****ORCA TERMINATED NORMALLY****
TOTAL RUN TIME: 0 days 0 hours 0 minutes 42 seconds 126 msec
