                         Program Version 6.0.0  -   RELEASE  -
|  1> ! r2scan-3c def2/J RI DEFGRID2 scfconv6 printgap
|  2> %output
|  3>     printlevel normal
|  4> end
|  5> * xyz 0 1
|  6> C -3.3172326672 -1.0859708603 0.1030629281
|  7> C -1.8733977931 -0.7183742069 0.4196972535
|  8> C -1.3541313033 0.3651704876 -0.5376797776
|  9> C 0.0636493056 0.7080813053 -0.1692261684
| 10> O 0.3856160415 1.5900978435 0.6001706591
| 11> O 0.9297685792 -0.0975704073 -0.7702216474
| 12> C 2.3269660188 0.045943566 -0.4647924695
| 13> C 2.7064945362 -0.7710769632 0.7608755161
| 14> H -3.3994139362 -1.4643821023 -0.912462192
| 15> H -3.666136012 -1.8538106733 0.7879942765
| 16> H -3.9622647748 -0.2166884752 0.2013439293
| 17> H -1.2394861179 -1.6025596338 0.3316956681
| 18> H -1.8009539746 -0.3497598024 1.4451425539
| 19> H -1.9667523007 1.2616291982 -0.4468792341
| 20> H -1.3775171418 -0.0074343766 -1.5608105914
| 21> H 2.8421026081 -0.3123939379 -1.356447734
| 22> H 2.5405283984 1.1066918323 -0.3016743772
| 23> H 3.7746352942 -0.6870383722 0.932130599
| 24> H 2.1782278193 -0.397233558 1.6351791989
| 25> H 2.4480811429 -1.8157490517 0.6102359503
| 26> *
| 27>
| 28>                          ****END OF INPUT****

CARTESIAN COORDINATES (ANGSTROEM)
---------------------------------
  C     -3.317233   -1.085971    0.103063
  C     -1.873398   -0.718374    0.419697
  C     -1.354131    0.365170   -0.537680
  C      0.063649    0.708081   -0.169226
  O      0.385616    1.590098    0.600171
  O      0.929769   -0.097570   -0.770222
  C      2.326966    0.045944   -0.464792
  C      2.706495   -0.771077    0.760876
  H     -3.399414   -1.464382   -0.912462
  H     -3.666136   -1.853811    0.787994
  H     -3.962265   -0.216688    0.201344
  H     -1.239486   -1.602560    0.331696
  H     -1.800954   -0.349760    1.445143
  H     -1.966752    1.261629   -0.446879
  H     -1.377517   -0.007434   -1.560811
  H      2.842103   -0.312394   -1.356448
  H      2.540528    1.106692   -0.301674
  H      3.774635   -0.687038    0.932131
  H      2.178228   -0.397234    1.635179
  H      2.448081   -1.815749    0.610236

 Total Charge           Charge          ....    0
 Multiplicity           Mult            ....    1
 Number of Electrons    NEL             ....   64
 Basis Dimension        Dim             ....  222

ORBITAL ENERGIES
----------------

  NO   OCC          E(Eh)            E(eV)
   0   2.0000     -18.995329      -516.8892
   1   2.0000     -18.925822      -514.9978
   2   2.0000     -10.150015      -276.1959
   3   2.0000     -10.090366      -274.5728
   4   2.0000     -10.040074      -273.2043
   5   2.0000     -10.039052      -273.1765
   6   2.0000     -10.028611      -272.8924
   7   2.0000     -10.023807      -272.7617
   8   2.0000      -1.070093       -29.1187
   9   2.0000      -0.973470       -26.4895
  10   2.0000      -0.775251       -21.0957
  11   2.0000      -0.739507       -20.1230
  12   2.0000      -0.680957       -18.5298
  13   2.0000      -0.621303       -16.9065
  14   2.0000      -0.569399       -15.4941
  15   2.0000      -0.521655       -14.1950
  16   2.0000      -0.472228       -12.8500
  17   2.0000      -0.456220       -12.4144
  18   2.0000      -0.439465       -11.9585
  19   2.0000      -0.422913       -11.5080
  20   2.0000      -0.410597       -11.1729
  21   2.0000      -0.391258       -10.6467
  22   2.0000      -0.370659       -10.0861
  23   2.0000      -0.361251        -9.8301
  24   2.0000      -0.359978        -9.7955
  25   2.0000      -0.344623        -9.3777
  26   2.0000      -0.326283        -8.8786
  27   2.0000      -0.312036        -8.4909
  28   2.0000      -0.309881        -8.4323
  29   2.0000      -0.304654        -8.2900
  30   2.0000      -0.269404        -7.3309
  31   2.0000      -0.232200        -6.3185
  32   0.0000      -0.013430        -0.3655
  33   0.0000       0.077329         2.1042
  34   0.0000       0.091435         2.4881
  35   0.0000       0.102878         2.7994
  36   0.0000       0.121005         3.2927

MULLIKEN ATOMIC CHARGES
-----------------------
   0 C :   -0.473276
   1 C :   -0.232816
   2 C :   -0.343507
   3 C :    0.422220
   4 O :   -0.431020
   5 O :   -0.183477
   6 C :   -0.138874
   7 C :   -0.468308
   8 H :    0.144812
   9 H :    0.150701
  10 H :    0.146527
  11 H :    0.146933
  12 H :    0.154576
  13 H :    0.162042
  14 H :    0.156475
  15 H :    0.147627
  16 H :    0.169128
  17 H :    0.147325
  18 H :    0.171648
  19 H :    0.151263
Sum of atomic charges:    0.0000000

LOEWDIN ATOMIC CHARGES
----------------------
   0 C :   -0.419444
   1 C :   -0.287793
   2 C :   -0.229174
   3 C :    0.356113
   4 O :   -0.433878
   5 O :   -0.596438
   6 C :    0.027176
   7 C :   -0.391091
   8 H :    0.150745
   9 H :    0.153057
  10 H :    0.151579
  11 H :    0.158171
  12 H :    0.160662
  13 H :    0.177083
  14 H :    0.176228
  15 H :    0.177426
  16 H :    0.188795
  17 H :    0.159223
  18 H :    0.165063
  19 H :    0.156498

  Mayer bond orders larger than 0.100000
B(  0-C ,  1-C ) :   0.8960 B(  0-C ,  8-H ) :   0.9851 B(  0-C ,  9-H ) :   0.9720
B(  0-C , 10-H ) :   0.9836 B(  1-C ,  2-C ) :   0.9220 B(  1-C , 11-H ) :   0.9610
B(  1-C , 12-H ) :   0.9597 B(  2-C ,  3-C ) :   0.9644 B(  2-C , 13-H ) :   0.9779
B(  2-C , 14-H ) :   0.9802 B(  3-C ,  4-O ) :   1.8458 B(  3-C ,  5-O ) :   1.0292
B(  5-O ,  6-C ) :   0.8168 B(  6-C ,  7-C ) :   0.9325 B(  6-C , 15-H ) :   0.9625
B(  6-C , 16-H ) :   0.9678 B(  7-C , 17-H ) :   0.9654 B(  7-C , 18-H ) :   0.9716
B(  7-C , 19-H ) :   0.9738

Dispersion correction           -0.005030336
FINAL SINGLE POINT ENERGY      -386.235846287080

DIPOLE MOMENT
-------------

Method             : SCF
Type of density    : Electron Density
Multiplicity       :   1
Irrep              :   0
Energy             :  -386.2424717615437544 Eh
Relativity type    :
Basis              : AO
                                X                 Y                 Z
Electronic contribution:      3.453645759       5.183041673      -1.633203998
Nuclear contribution   :     -3.385054356      -5.924652971       1.278496343
                        -----------------------------------------
Total Dipole Moment    :      0.068591402      -0.741611298      -0.354707656
                        -----------------------------------------
Magnitude (a.u.)       :      0.824930069
Magnitude (Debye)      :      2.096805599

Rotational constants in cm-1:             0.131085             0.033353             0.030733
Rotational constants in MHz :          3929.821634           999.885005           921.340496

                             ****ORCA TERMINATED NORMALLY****
TOTAL RUN TIME: 0 days 0 hours 0 minutes 31 seconds 253 msec
