                         Program Version 6.0.0  -   RELEASE  -
|  1> ! r2scan-3c def2/J RI DEFGRID2 scfconv6 printgap
|  2> %output
|  3>     printlevel normal
|  4> end
|  5> %cpcm
|  6>     smd true
|  7>     smdsolvent "water"
|  8> end
|  9> * xyz 0 1
| 10> C -3.3172326672 -1.0859708603 0.1030629281
| 11> C -1.8733977931 -0.7183742069 0.4196972535
| 12> C -1.3541313033 0.3651704876 -0.5376797776
| 13> C 0.0636493056 0.7080813053 -0.1692261684
| 14> O 0.3856160415 1.5900978435 0.6001706591
| 15> O 0.9297685792 -0.0975704073 -0.7702216474
| 16> C 2.3269660188 0.045943566 -0.4647924695
| 17> C 2.7064945362 -0.7710769632 0.7608755161
| 18> H -3.3994139362 -1.4643821023 -0.912462192
| 19> H -3.666136012 -1.8538106733 0.7879942765
| 20> H -3.9622647748 -0.2166884752 0.2013439293
| 21> H -1.2394861179 -1.6025596338 0.3316956681
| 22> H -1.8009539746 -0.3497598024 1.4451425539
| 23> H -1.9667523007 1.2616291982 -0.4468792341
| 24> H -1.3775171418 -0.0074343766 -1.5608105914
| 25> H 2.8421026081 -0.3123939379 -1.356447734
| 26> H 2.5405283984 1.1066918323 -0.3016743772
| 27> H 3.7746352942 -0.6870383722 0.932130599
| 28> H 2.1782278193 -0.397233558 1.6351791989
| 29> H 2.4480811429 -1.8157490517 0.6102359503
| 30> *
| 31>
| 32>                          ****END OF INPUT****

CARTESIAN COORDINATES (ANGSTROEM)
---------------------------------
  C     -3.317233   -1.085971    0.103063
  C     -1.873398   -0.718374    0.419697
  C     -1.354131    0.365170   -0.537680
  C      0.063649    0.708081   -0.169226
  O      0.385616    1.590098    0.600171
  O      0.929769   -0.097570   -0.770222
  C      2.326966    0.045944   -0.464792
  C      2.706495   -0.771077    0.760876
  H     -3.399414   -1.464382   -0.912462
  H     -3.666136   -1.853811    0.787994
  H     -3.962265   -0.216688    0.201344
  H     -1.239486   -1.602560    0.331696
  H     -1.800954   -0.349760    1.445143
  H     -1.966752    1.261629   -0.446879
  H     -1.377517   -0.007434   -1.560811
  H      2.842103   -0.312394   -1.356448
  H      2.540528    1.106692   -0.301674
  H      3.774635   -0.687038    0.932131
  H      2.178228   -0.397234    1.635179
  H      2.448081   -1.815749    0.610236

 Total Charge           Charge          ....    0
 Multiplicity           Mult            ....    1
 Number of Electrons    NEL             ....   64
 Basis Dimension        Dim             ....  222

ORBITAL ENERGIES
----------------

  NO   OCC          E(Eh)            E(eV)
   0   2.0000     -19.001876      -517.0673
   1   2.0000     -18.942801      -515.4598
   2   2.0000     -10.161566      -276.5103
   3   2.0000     -10.083138      -274.3761
   4   2.0000     -10.034641      -273.0565
   5   2.0000     -10.030472      -272.9430
   6   2.0000     -10.018315      -272.6122
   7   2.0000     -10.012030      -272.4412
   8   2.0000      -1.078359       -29.3436
   9   2.0000      -0.988281       -26.8925
  10   2.0000      -0.769842       -20.9485
  11   2.0000      -0.732513       -19.9327
  12   2.0000      -0.674160       -18.3448
  13   2.0000      -0.616114       -16.7653
  14   2.0000      -0.561332       -15.2746
  15   2.0000      -0.519936       -14.1482
  16   2.0000      -0.472442       -12.8558
  17   2.0000      -0.461356       -12.5541
  18   2.0000      -0.439204       -11.9513
  19   2.0000      -0.425046       -11.5661
  20   2.0000      -0.408119       -11.1055
  21   2.0000      -0.384098       -10.4518
  22   2.0000      -0.363045        -9.8790
  23   2.0000      -0.357344        -9.7238
  24   2.0000      -0.355721        -9.6797
  25   2.0000      -0.339829        -9.2472
  26   2.0000      -0.320237        -8.7141
  27   2.0000      -0.305790        -8.3210
  28   2.0000      -0.303783        -8.2664
  29   2.0000      -0.300643        -8.1809
  30   2.0000      -0.276951        -7.5362
  31   2.0000      -0.248845        -6.7714
  32   0.0000      -0.022563        -0.6140
  33   0.0000       0.079284         2.1574
  34   0.0000       0.098888         2.6909
  35   0.0000       0.113067         3.0767
  36   0.0000       0.130642         3.5550

MULLIKEN ATOMIC CHARGES
-----------------------
   0 C :   -0.517005
   1 C :   -0.219932
   2 C :   -0.369152
   3 C :    0.460904
   4 O :   -0.515421
   5 O :   -0.201848
   6 C :   -0.144366
   7 C :   -0.492746
   8 H :    0.158989
   9 H :    0.162438
  10 H :    0.159112
  11 H :    0.156897
  12 H :    0.158146
  13 H :    0.176622
  14 H :    0.177351
  15 H :    0.173729
  16 H :    0.171714
  17 H :    0.170646
  18 H :    0.167887
  19 H :    0.166034
Sum of atomic charges:    0.0000000

LOEWDIN ATOMIC CHARGES
----------------------
   0 C :   -0.424699
   1 C :   -0.285276
   2 C :   -0.227398
   3 C :    0.364792
   4 O :   -0.494724
   5 O :   -0.598489
   6 C :    0.031854
   7 C :   -0.393707
   8 H :    0.154893
   9 H :    0.156394
  10 H :    0.154894
  11 H :    0.161613
  12 H :    0.161492
  13 H :    0.182445
  14 H :    0.185346
  15 H :    0.188871
  16 H :    0.189634
  17 H :    0.167811
  18 H :    0.162421
  19 H :    0.161833

  Mayer bond orders larger than 0.100000
B(  0-C ,  1-C ) :   0.8881 B(  0-C ,  8-H ) :   0.9821 B(  0-C ,  9-H ) :   0.9688
B(  0-C , 10-H ) :   0.9813 B(  1-C ,  2-C ) :   0.9118 B(  1-C , 11-H ) :   0.9579
B(  1-C , 12-H ) :   0.9588 B(  2-C ,  3-C ) :   0.9615 B(  2-C , 13-H ) :   0.9766
B(  2-C , 14-H ) :   0.9692 B(  3-C ,  4-O ) :   1.7746 B(  3-C ,  5-O ) :   1.0549
B(  5-O ,  6-C ) :   0.7992 B(  6-C ,  7-C ) :   0.9320 B(  6-C , 15-H ) :   0.9530
B(  6-C , 16-H ) :   0.9638 B(  7-C , 17-H ) :   0.9604 B(  7-C , 18-H ) :   0.9691
B(  7-C , 19-H ) :   0.9697

Dispersion correction           -0.005030336
FINAL SINGLE POINT ENERGY      -386.240907704271

DIPOLE MOMENT
-------------

Method             : SCF
Type of density    : Electron Density
Multiplicity       :   1
Irrep              :   0
Energy             :  -386.2475331787351251 Eh
Relativity type    :
Basis              : AO
                                X                 Y                 Z
Electronic contribution:      3.472451791       4.890719900      -1.843372202
Nuclear contribution   :     -3.385054356      -5.924652971       1.278496343
                        -----------------------------------------
Total Dipole Moment    :      0.087397434      -1.033933071      -0.564875860
                        -----------------------------------------
Magnitude (a.u.)       :      1.181414679
Magnitude (Debye)      :      3.002917469

Rotational constants in cm-1:             0.131085             0.033353             0.030733
Rotational constants in MHz :          3929.821634           999.885005           921.340496

                             ****ORCA TERMINATED NORMALLY****
TOTAL RUN TIME: 0 days 0 hours 0 minutes 36 seconds 619 msec
