                         Program Version 6.0.0  -   RELEASE  -
|  1> ! r2scan-3c def2/J RI DEFGRID2 scfconv6 printgap
|  2> %output
|  3>     printlevel normal
|  4> end
|  5> * xyz 0 1
|  6> C -2.4564661953 -1.3379246629 -0.307926238
|  7> C -2.5523934029 0.1306805088 0.0873361384
|  8> C -1.2977030243 0.5965242401 0.8321264491
|  9> C -0.0973827095 0.59375386 -0.0790643669
| 10> O -0.0498968937 1.119804367 -1.1725460295
| 11> O 0.9264484998 -0.0557456341 0.456576482
| 12> C 2.1485806813 -0.1235057817 -0.2976547922
| 13> C 3.1877715707 -0.8332998491 0.5480082454
| 14> H -1.6167686482 -1.4946578482 -0.9826220076
| 15> H -2.3133300389 -1.9620685797 0.57087571
| 16> H -3.3644832416 -1.6543627607 -0.8140635683
| 17> H -3.4200807501 0.2818640915 0.7297787458
| 18> H -2.6742323343 0.7442423604 -0.8072790952
| 19> H -1.0860330569 -0.0442493835 1.6872038971
| 20> H -1.4402695113 1.6221850341 1.1772427065
| 21> H 1.9483938391 -0.660135917 -1.2309897939
| 22> H 2.4553035663 0.8965356847 -0.5515586815
| 23> H 2.8457504715 -1.8342054075 0.7937383279
| 24> H 4.1185888872 -0.8975950369 -0.005631548
| 25> H 3.3551385123 -0.2841179528 1.4697839916
| 26> *
| 27>
| 28>                          ****END OF INPUT****

CARTESIAN COORDINATES (ANGSTROEM)
---------------------------------
  C     -2.456466   -1.337925   -0.307926
  C     -2.552393    0.130681    0.087336
  C     -1.297703    0.596524    0.832126
  C     -0.097383    0.593754   -0.079064
  O     -0.049897    1.119804   -1.172546
  O      0.926448   -0.055746    0.456576
  C      2.148581   -0.123506   -0.297655
  C      3.187772   -0.833300    0.548008
  H     -1.616769   -1.494658   -0.982622
  H     -2.313330   -1.962069    0.570876
  H     -3.364483   -1.654363   -0.814064
  H     -3.420081    0.281864    0.729779
  H     -2.674232    0.744242   -0.807279
  H     -1.086033   -0.044249    1.687204
  H     -1.440270    1.622185    1.177243
  H      1.948394   -0.660136   -1.230990
  H      2.455304    0.896536   -0.551559
  H      2.845750   -1.834205    0.793738
  H      4.118589   -0.897595   -0.005632
  H      3.355139   -0.284118    1.469784

 Total Charge           Charge          ....    0
 Multiplicity           Mult            ....    1
 Number of Electrons    NEL             ....   64
 Basis Dimension        Dim             ....  222

ORBITAL ENERGIES
----------------

  NO   OCC          E(Eh)            E(eV)
   0   2.0000     -18.996840      -516.9303
   1   2.0000     -18.926941      -515.0282
   2   2.0000     -10.150481      -276.2086
   3   2.0000     -10.091414      -274.6013
   4   2.0000     -10.040173      -273.2070
   5   2.0000     -10.032992      -273.0116
   6   2.0000     -10.032016      -272.9850
   7   2.0000     -10.018671      -272.6219
   8   2.0000      -1.071768       -29.1643
   9   2.0000      -0.973883       -26.5007
  10   2.0000      -0.772924       -21.0323
  11   2.0000      -0.743060       -20.2197
  12   2.0000      -0.677530       -18.4365
  13   2.0000      -0.617499       -16.8030
  14   2.0000      -0.564884       -15.3713
  15   2.0000      -0.529182       -14.3998
  16   2.0000      -0.470617       -12.8061
  17   2.0000      -0.463832       -12.6215
  18   2.0000      -0.434248       -11.8165
  19   2.0000      -0.426545       -11.6069
  20   2.0000      -0.407716       -11.0945
  21   2.0000      -0.379030       -10.3139
  22   2.0000      -0.377952       -10.2846
  23   2.0000      -0.366208        -9.9650
  24   2.0000      -0.361521        -9.8375
  25   2.0000      -0.333902        -9.0859
  26   2.0000      -0.323369        -8.7993
  27   2.0000      -0.308669        -8.3993
  28   2.0000      -0.307827        -8.3764
  29   2.0000      -0.306735        -8.3467
  30   2.0000      -0.271764        -7.3951
  31   2.0000      -0.234498        -6.3810
  32   0.0000      -0.015019        -0.4087
  33   0.0000       0.073442         1.9984
  34   0.0000       0.096584         2.6282
  35   0.0000       0.104943         2.8557
  36   0.0000       0.124661         3.3922

MULLIKEN ATOMIC CHARGES
-----------------------
   0 C :   -0.494273
   1 C :   -0.213300
   2 C :   -0.298928
   3 C :    0.327377
   4 O :   -0.419854
   5 O :   -0.157566
   6 C :   -0.153588
   7 C :   -0.441515
   8 H :    0.156226
   9 H :    0.145536
  10 H :    0.148357
  11 H :    0.143620
  12 H :    0.161323
  13 H :    0.164463
  14 H :    0.165947
  15 H :    0.155325
  16 H :    0.158971
  17 H :    0.152261
  18 H :    0.147098
  19 H :    0.152519
Sum of atomic charges:    0.0000000

LOEWDIN ATOMIC CHARGES
----------------------
   0 C :   -0.416683
   1 C :   -0.294045
   2 C :   -0.232800
   3 C :    0.351796
   4 O :   -0.431604
   5 O :   -0.598289
   6 C :    0.033121
   7 C :   -0.386538
   8 H :    0.155817
   9 H :    0.150163
  10 H :    0.152809
  11 H :    0.152620
  12 H :    0.167951
  13 H :    0.176958
  14 H :    0.181839
  15 H :    0.178348
  16 H :    0.180347
  17 H :    0.159361
  18 H :    0.159457
  19 H :    0.159371

  Mayer bond orders larger than 0.100000
B(  0-C ,  1-C ) :   0.9059 B(  0-C ,  8-H ) :   0.9735 B(  0-C ,  9-H ) :   0.9821
B(  0-C , 10-H ) :   0.9688 B(  1-C ,  2-C ) :   0.8904 B(  1-C , 11-H ) :   0.9657
B(  1-C , 12-H ) :   0.9658 B(  2-C ,  3-C ) :   0.9375 B(  2-C , 13-H ) :   1.0078
B(  2-C , 14-H ) :   0.9339 B(  3-C ,  4-O ) :   1.8147 B(  3-C ,  5-O ) :   1.0739
B(  5-O ,  6-C ) :   0.8059 B(  6-C ,  7-C ) :   0.9393 B(  6-C , 15-H ) :   0.9521
B(  6-C , 16-H ) :   0.9545 B(  7-C , 17-H ) :   0.9717 B(  7-C , 18-H ) :   0.9681
B(  7-C , 19-H ) :   0.9729

Dispersion correction           -0.005019004
FINAL SINGLE POINT ENERGY      -386.236749172210

DIPOLE MOMENT
-------------

Method             : SCF
Type of density    : Electron Density
Multiplicity       :   1
Irrep              :   0
Energy             :  -386.2433793265233248 Eh
Relativity type    :
Basis              : AO
                                X                 Y                 Z
Electronic contribution:      1.368149189       4.500979106      -1.287221422
Nuclear contribution   :     -1.105317977      -4.943901865       1.899939969
                        -----------------------------------------
Total Dipole Moment    :      0.262831212      -0.442922759       0.612718547
                        -----------------------------------------
Magnitude (a.u.)       :      0.800427907
Magnitude (Debye)      :      2.034526053

Rotational constants in cm-1:             0.132695             0.033942             0.031570
Rotational constants in MHz :          3978.082935          1017.541286           946.454079

                             ****ORCA TERMINATED NORMALLY****
TOTAL RUN TIME: 0 days 0 hours 0 minutes 29 seconds 666 msec
