                         Program Version 6.0.0  -   RELEASE  -
|  1> ! r2scan-3c def2/J RI DEFGRID2 scfconv6 printgap
|  2> %output
|  3>     printlevel normal
|  4> end
|  5> %cpcm
|  6>     smd true
|  7>     smdsolvent "water"
|  8> end
|  9> * xyz 0 1
| 10> C -2.4564661953 -1.3379246629 -0.307926238
| 11> C -2.5523934029 0.1306805088 0.0873361384
| 12> C -1.2977030243 0.5965242401 0.8321264491
| 13> C -0.0973827095 0.59375386 -0.0790643669
| 14> O -0.0498968937 1.119804367 -1.1725460295
| 15> O 0.9264484998 -0.0557456341 0.456576482
| 16> C 2.1485806813 -0.1235057817 -0.2976547922
| 17> C 3.1877715707 -0.8332998491 0.5480082454
| 18> H -1.6167686482 -1.4946578482 -0.9826220076
| 19> H -2.3133300389 -1.9620685797 0.57087571
| 20> H -3.3644832416 -1.6543627607 -0.8140635683
| 21> H -3.4200807501 0.2818640915 0.7297787458
| 22> H -2.6742323343 0.7442423604 -0.8072790952
| 23> H -1.0860330569 -0.0442493835 1.6872038971
| 24> H -1.4402695113 1.6221850341 1.1772427065
| 25> H 1.9483938391 -0.660135917 -1.2309897939
| 26> H 2.4553035663 0.8965356847 -0.5515586815
| 27> H 2.8457504715 -1.8342054075 0.7937383279
| 28> H 4.1185888872 -0.8975950369 -0.005631548
| 29> H 3.3551385123 -0.2841179528 1.4697839916
| 30> *
| 31>
| 32>                          ****END OF INPUT****

CARTESIAN COORDINATES (ANGSTROEM)
---------------------------------
  C     -2.456466   -1.337925   -0.307926
  C     -2.552393    0.130681    0.087336
  C     -1.297703    0.596524    0.832126
  C     -0.097383    0.593754   -0.079064
  O     -0.049897    1.119804   -1.172546
  O      0.926448   -0.055746    0.456576
  C      2.148581   -0.123506   -0.297655
  C      3.187772   -0.833300    0.548008
  H     -1.616769   -1.494658   -0.982622
  H     -2.313330   -1.962069    0.570876
  H     -3.364483   -1.654363   -0.814064
  H     -3.420081    0.281864    0.729779
  H     -2.674232    0.744242   -0.807279
  H     -1.086033   -0.044249    1.687204
  H     -1.440270    1.622185    1.177243
  H      1.948394   -0.660136   -1.230990
  H      2.455304    0.896536   -0.551559
  H      2.845750   -1.834205    0.793738
  H      4.118589   -0.897595   -0.005632
  H      3.355139   -0.284118    1.469784

 Total Charge           Charge          ....    0
 Multiplicity           Mult            ....    1
 Number of Electrons    NEL             ....   64
 Basis Dimension        Dim             ....  222

ORBITAL ENERGIES
----------------

  NO   OCC          E(Eh)            E(eV)
   0   2.0000     -19.003394      -517.1086
   1   2.0000     -18.943585      -515.4811
   2   2.0000     -10.161908      -276.5196
   3   2.0000     -10.083936      -274.3978
   4   2.0000     -10.035258      -273.0732
   5   2.0000     -10.027679      -272.8670
   6   2.0000     -10.018911      -272.6284
   7   2.0000     -10.011426      -272.4248
   8   2.0000      -1.079838       -29.3839
   9   2.0000      -0.988467       -26.8975
  10   2.0000      -0.769313       -20.9341
  11   2.0000      -0.735852       -20.0235
  12   2.0000      -0.672200       -18.2915
  13   2.0000      -0.611410       -16.6373
  14   2.0000      -0.559005       -15.2113
  15   2.0000      -0.528674       -14.3859
  16   2.0000      -0.472716       -12.8632
  17   2.0000      -0.464705       -12.6453
  18   2.0000      -0.444112       -12.0849
  19   2.0000      -0.421731       -11.4759
  20   2.0000      -0.405952       -11.0465
  21   2.0000      -0.376597       -10.2477
  22   2.0000      -0.369026       -10.0417
  23   2.0000      -0.361554        -9.8384
  24   2.0000      -0.355752        -9.6805
  25   2.0000      -0.328965        -8.9516
  26   2.0000      -0.320872        -8.7314
  27   2.0000      -0.304714        -8.2917
  28   2.0000      -0.304207        -8.2779
  29   2.0000      -0.303088        -8.2474
  30   2.0000      -0.278431        -7.5765
  31   2.0000      -0.251974        -6.8565
  32   0.0000      -0.023669        -0.6441
  33   0.0000       0.076067         2.0699
  34   0.0000       0.104047         2.8313
  35   0.0000       0.115092         3.1318
  36   0.0000       0.131800         3.5865

MULLIKEN ATOMIC CHARGES
-----------------------
   0 C :   -0.528748
   1 C :   -0.222819
   2 C :   -0.314096
   3 C :    0.373783
   4 O :   -0.506612
   5 O :   -0.175178
   6 C :   -0.157695
   7 C :   -0.490950
   8 H :    0.161784
   9 H :    0.161809
  10 H :    0.161286
  11 H :    0.163100
  12 H :    0.154057
  13 H :    0.180318
  14 H :    0.195579
  15 H :    0.172992
  16 H :    0.171904
  17 H :    0.165006
  18 H :    0.169107
  19 H :    0.165371
Sum of atomic charges:    0.0000000

LOEWDIN ATOMIC CHARGES
----------------------
   0 C :   -0.423766
   1 C :   -0.293562
   2 C :   -0.229674
   3 C :    0.362370
   4 O :   -0.493038
   5 O :   -0.600047
   6 C :    0.035437
   7 C :   -0.389705
   8 H :    0.156085
   9 H :    0.155704
  10 H :    0.156172
  11 H :    0.160309
  12 H :    0.163539
  13 H :    0.184787
  14 H :    0.192449
  15 H :    0.184358
  16 H :    0.184897
  17 H :    0.162702
  18 H :    0.168342
  19 H :    0.162640

  Mayer bond orders larger than 0.100000
B(  0-C ,  1-C ) :   0.9004 B(  0-C ,  8-H ) :   0.9710 B(  0-C ,  9-H ) :   0.9782
B(  0-C , 10-H ) :   0.9658 B(  1-C ,  2-C ) :   0.8759 B(  1-C , 11-H ) :   0.9613
B(  1-C , 12-H ) :   0.9708 B(  2-C ,  3-C ) :   0.9402 B(  2-C , 13-H ) :   0.9970
B(  2-C , 14-H ) :   0.9264 B(  3-C ,  4-O ) :   1.7450 B(  3-C ,  5-O ) :   1.0998
B(  5-O ,  6-C ) :   0.7921 B(  6-C ,  7-C ) :   0.9411 B(  6-C , 15-H ) :   0.9439
B(  6-C , 16-H ) :   0.9472 B(  7-C , 17-H ) :   0.9696 B(  7-C , 18-H ) :   0.9615
B(  7-C , 19-H ) :   0.9712

Dispersion correction           -0.005019004
FINAL SINGLE POINT ENERGY      -386.242359668117

DIPOLE MOMENT
-------------

Method             : SCF
Type of density    : Electron Density
Multiplicity       :   1
Irrep              :   0
Energy             :  -386.2489898224300191 Eh
Relativity type    :
Basis              : AO
                                X                 Y                 Z
Electronic contribution:      1.433201106       4.335556137      -0.987589766
Nuclear contribution   :     -1.105317977      -4.943901865       1.899939969
                        -----------------------------------------
Total Dipole Moment    :      0.327883129      -0.608345729       0.912350203
                        -----------------------------------------
Magnitude (a.u.)       :      1.144541290
Magnitude (Debye)      :      2.909192762

Rotational constants in cm-1:             0.132695             0.033942             0.031570
Rotational constants in MHz :          3978.082935          1017.541286           946.454079

                             ****ORCA TERMINATED NORMALLY****
TOTAL RUN TIME: 0 days 0 hours 0 minutes 39 seconds 85 msec
