                         Program Version 6.0.0  -   RELEASE  -
|  1> ! pbe def2-sv(p) def2/J RI DEFGRID1 loosescf d4 GCP(DFT/SV(P)) printgap
|  2> %output
|  3>     printlevel normal
|  4> end
|  5> * xyz 0 1
|  6> C 2.4332623654 -0.2525812507 0.1397440026
|  7> C 1.0144476112 0.2344697602 0.4095946522
|  8> C 0.0624546281 -0.1421498535 -0.7244864391
|  9> C -1.3628124976 0.3944616288 -0.5168796246
| 10> N -2.0936789785 -0.1694437956 0.6073206769
| 11> H 2.8186404573 0.188624368 -0.7766497802
| 12> H 3.0936365711 0.0221462086 0.9585523901
| 13> H 2.4508138033 -1.3349173947 0.0316947938
| 14> H 0.6629997865 -0.200958917 1.3482834639
| 15> H 1.0186006167 1.3207842559 0.5274402155
| 16> H 0.4476491595 0.2613499719 -1.6630421105
| 17> H 0.0250963728 -1.230887757 -0.8215399916
| 18> H -1.9516853238 0.1936154873 -1.4167071751
| 19> H -1.3257901789 1.4779702059 -0.3742289346
| 20> H -1.6117756167 0.0461986453 1.4733029993
| 21> H -2.1221957797 -1.1801104183 0.5198022387
| 22> *
| 23>
| 24>                          ****END OF INPUT****

CARTESIAN COORDINATES (ANGSTROEM)
---------------------------------
  C      2.433262   -0.252581    0.139744
  C      1.014448    0.234470    0.409595
  C      0.062455   -0.142150   -0.724486
  C     -1.362812    0.394462   -0.516880
  N     -2.093679   -0.169444    0.607321
  H      2.818640    0.188624   -0.776650
  H      3.093637    0.022146    0.958552
  H      2.450814   -1.334917    0.031695
  H      0.663000   -0.200959    1.348283
  H      1.018601    1.320784    0.527440
  H      0.447649    0.261350   -1.663042
  H      0.025096   -1.230888   -0.821540
  H     -1.951685    0.193615   -1.416707
  H     -1.325790    1.477970   -0.374229
  H     -1.611776    0.046199    1.473303
  H     -2.122196   -1.180110    0.519802

 Total Charge           Charge          ....    0
 Multiplicity           Mult            ....    1
 Number of Electrons    NEL             ....   42
 Basis Dimension        Dim             ....   92

ORBITAL ENERGIES
----------------

  NO   OCC          E(Eh)            E(eV)
   0   2.0000     -13.954535      -379.7222
   1   2.0000      -9.902057      -269.4487
   2   2.0000      -9.885751      -269.0050
   3   2.0000      -9.879568      -268.8367
   4   2.0000      -9.874286      -268.6930
   5   2.0000      -0.792268       -21.5587
   6   2.0000      -0.706571       -19.2268
   7   2.0000      -0.630748       -17.1635
   8   2.0000      -0.555056       -15.1038
   9   2.0000      -0.513174       -13.9642
  10   2.0000      -0.442288       -12.0353
  11   2.0000      -0.419323       -11.4104
  12   2.0000      -0.390870       -10.6361
  13   2.0000      -0.371172       -10.1001
  14   2.0000      -0.362662        -9.8685
  15   2.0000      -0.333183        -9.0664
  16   2.0000      -0.312894        -8.5143
  17   2.0000      -0.301482        -8.2037
  18   2.0000      -0.288319        -7.8456
  19   2.0000      -0.280792        -7.6408
  20   2.0000      -0.179636        -4.8881
  21   0.0000       0.031029         0.8443
  22   0.0000       0.054486         1.4826
  23   0.0000       0.062718         1.7067
  24   0.0000       0.065121         1.7720
  25   0.0000       0.105949         2.8830

MULLIKEN ATOMIC CHARGES
-----------------------
   0 C :   -0.254844
   1 C :   -0.207974
   2 C :   -0.186098
   3 C :   -0.063643
   4 N :   -0.451326
   5 H :    0.098460
   6 H :    0.101631
   7 H :    0.096885
   8 H :    0.069413
   9 H :    0.084113
  10 H :    0.075499
  11 H :    0.072236
  12 H :    0.085348
  13 H :    0.080486
  14 H :    0.203039
  15 H :    0.196777
Sum of atomic charges:   -0.0000000

LOEWDIN ATOMIC CHARGES
----------------------
   0 C :   -0.338673
   1 C :   -0.240468
   2 C :   -0.251119
   3 C :   -0.180560
   4 N :   -0.406456
   5 H :    0.117002
   6 H :    0.118145
   7 H :    0.116833
   8 H :    0.104500
   9 H :    0.114045
  10 H :    0.115162
  11 H :    0.108641
  12 H :    0.110995
  13 H :    0.111076
  14 H :    0.200170
  15 H :    0.200708

  Mayer bond orders larger than 0.100000
B(  0-C ,  1-C ) :   1.1564 B(  0-C ,  5-H ) :   0.9550 B(  0-C ,  6-H ) :   0.9534
B(  0-C ,  7-H ) :   0.9546 B(  1-C ,  2-C ) :   1.1245 B(  1-C ,  8-H ) :   0.9152
B(  1-C ,  9-H ) :   0.9286 B(  2-C ,  3-C ) :   1.0835 B(  2-C , 10-H ) :   0.9097
B(  2-C , 11-H ) :   0.9208 B(  3-C ,  4-N ) :   1.1481 B(  3-C , 12-H ) :   0.9343
B(  3-C , 13-H ) :   0.9309 B(  4-N , 14-H ) :   0.9107 B(  4-N , 15-H ) :   0.9108

Dispersion correction           -0.010105290
FINAL SINGLE POINT ENERGY      -213.246024088616

DIPOLE MOMENT
-------------

Method             : SCF
Type of density    : Electron Density
Multiplicity       :   1
Irrep              :   0
Energy             :  -213.3064563416370163 Eh
Relativity type    :
Basis              : AO
                                X                 Y                 Z
Electronic contribution:     -2.818797588       0.183110551       0.230143232
Nuclear contribution   :      3.277747023      -0.410138537      -0.177832949
                        -----------------------------------------
Total Dipole Moment    :      0.458949435      -0.227027986       0.052310282
                        -----------------------------------------
Magnitude (a.u.)       :      0.514696664
Magnitude (Debye)      :      1.308254951

Rotational constants in cm-1:             0.409195             0.077381             0.071821
Rotational constants in MHz :         12267.353402          2319.814269          2153.142754

                             ****ORCA TERMINATED NORMALLY****
TOTAL RUN TIME: 0 days 0 hours 0 minutes 7 seconds 564 msec
