                         Program Version 6.0.0  -   RELEASE  -
|  1> ! pbe def2-sv(p) def2/J RI DEFGRID1 loosescf d4 GCP(DFT/SV(P)) printgap
|  2> %output
|  3>     printlevel normal
|  4> end
|  5> * xyz 0 1
|  6> C -4.4177854332 -1.2848227553 0.1426552213
|  7> C -3.5938191218 -2.383288018 -0.060994128
|  8> C -2.2305992563 -2.2082850761 -0.2101302407
|  9> C -1.6654991422 -0.9361016735 -0.1517892908
| 10> C -2.4972323495 0.1695204486 0.0557689686
| 11> C -3.8713448084 -0.0168289673 0.1979247227
| 12> C -1.9378991695 1.5247191114 0.1236201908
| 13> O -2.6592182799 2.5122283951 0.2529123911
| 14> C -0.4712358435 1.643188985 0.0449049505
| 15> C 0.0597272581 2.9120287701 0.1991943939
| 16> C 1.4366709591 3.1090708122 0.142300715
| 17> C 2.2759705832 2.0476558769 -0.0617308552
| 18> C 1.7828495359 0.728914082 -0.2210107405
| 19> C 0.3672815627 0.5241241434 -0.1721114937
| 20> C -0.2049048382 -0.7969730119 -0.3247891745
| 21> O 0.4643078245 -1.8108849771 -0.5878716479
| 22> N 2.6062620886 -0.3000113296 -0.4544177606
| 23> C 4.036562627 -0.3630145809 -0.303744926
| 24> C 4.4059403393 -1.3786126959 0.7914622884
| 25> O 3.9375253677 -2.6764588101 0.5131807696
| 26> H -5.4818732597 -1.4187527469 0.2574359852
| 27> H -4.0155064783 -3.3752112154 -0.1044449123
| 28> H -1.5728131814 -3.0491952468 -0.3731146801
| 29> H -4.4880447942 0.8560498198 0.3535527823
| 30> H -0.6185097609 3.7358897617 0.3595642254
| 31> H 1.8392080108 4.1033625415 0.255541196
| 32> H 3.3366578252 2.2246571076 -0.1194281959
| 33> H 2.148659696 -1.2096728022 -0.5278825322
| 34> H 4.45372846 0.603583351 -0.030870534
| 35> H 4.4733873786 -0.6820833329 -1.2559885038
| 36> H 3.9290998066 -1.0932921971 1.7321757763
| 37> H 5.4937042624 -1.3775700284 0.9323962191
| 38> H 4.3823094108 -3.0174572089 -0.2754623572
| 39> *
| 40>
| 41>                          ****END OF INPUT****

CARTESIAN COORDINATES (ANGSTROEM)
---------------------------------
  C     -4.417785   -1.284823    0.142655
  C     -3.593819   -2.383288   -0.060994
  C     -2.230599   -2.208285   -0.210130
  C     -1.665499   -0.936102   -0.151789
  C     -2.497232    0.169520    0.055769
  C     -3.871345   -0.016829    0.197925
  C     -1.937899    1.524719    0.123620
  O     -2.659218    2.512228    0.252912
  C     -0.471236    1.643189    0.044905
  C      0.059727    2.912029    0.199194
  C      1.436671    3.109071    0.142301
  C      2.275971    2.047656   -0.061731
  C      1.782850    0.728914   -0.221011
  C      0.367282    0.524124   -0.172111
  C     -0.204905   -0.796973   -0.324789
  O      0.464308   -1.810885   -0.587872
  N      2.606262   -0.300011   -0.454418
  C      4.036563   -0.363015   -0.303745
  C      4.405940   -1.378613    0.791462
  O      3.937525   -2.676459    0.513181
  H     -5.481873   -1.418753    0.257436
  H     -4.015506   -3.375211   -0.104445
  H     -1.572813   -3.049195   -0.373115
  H     -4.488045    0.856050    0.353553
  H     -0.618510    3.735890    0.359564
  H      1.839208    4.103363    0.255541
  H      3.336658    2.224657   -0.119428
  H      2.148660   -1.209673   -0.527883
  H      4.453728    0.603583   -0.030871
  H      4.473387   -0.682083   -1.255989
  H      3.929100   -1.093292    1.732176
  H      5.493704   -1.377570    0.932396
  H      4.382309   -3.017457   -0.275462

 Total Charge           Charge          ....    0
 Multiplicity           Mult            ....    1
 Number of Electrons    NEL             ....  140
 Basis Dimension        Dim             ....  306

ORBITAL ENERGIES
----------------

  NO   OCC          E(Eh)            E(eV)
   0   2.0000     -18.762350      -510.5495
   1   2.0000     -18.743653      -510.0407
   2   2.0000     -18.739036      -509.9151
   3   2.0000     -14.015131      -381.3711
   4   2.0000      -9.972843      -271.3748
   5   2.0000      -9.970710      -271.3168
   6   2.0000      -9.957729      -270.9636
   7   2.0000      -9.949144      -270.7300
   8   2.0000      -9.940880      -270.5051
   9   2.0000      -9.909583      -269.6535
  10   2.0000      -9.908637      -269.6277
  11   2.0000      -9.908189      -269.6155
  12   2.0000      -9.907547      -269.5981
  13   2.0000      -9.906756      -269.5765
  14   2.0000      -9.905346      -269.5382
  15   2.0000      -9.904652      -269.5193
  16   2.0000      -9.904650      -269.5192
  17   2.0000      -9.901571      -269.4354
  18   2.0000      -9.900284      -269.4004
  19   2.0000      -9.891711      -269.1671
  20   2.0000      -0.940747       -25.5990
  21   2.0000      -0.935883       -25.4667
  22   2.0000      -0.931480       -25.3469
  23   2.0000      -0.870023       -23.6745
  24   2.0000      -0.793406       -21.5897
  25   2.0000      -0.779061       -21.1993
  26   2.0000      -0.721935       -19.6449
  27   2.0000      -0.704615       -19.1736
  28   2.0000      -0.684353       -18.6222
  29   2.0000      -0.680627       -18.5208
  30   2.0000      -0.653684       -17.7876
  31   2.0000      -0.605604       -16.4793
  32   2.0000      -0.597078       -16.2473
  33   2.0000      -0.580385       -15.7931
  34   2.0000      -0.568324       -15.4649
  35   2.0000      -0.537188       -14.6176
  36   2.0000      -0.520688       -14.1686
  37   2.0000      -0.497452       -13.5364
  38   2.0000      -0.492880       -13.4120
  39   2.0000      -0.469593       -12.7783
  40   2.0000      -0.459241       -12.4966
  41   2.0000      -0.439274       -11.9532
  42   2.0000      -0.432486       -11.7685
  43   2.0000      -0.429812       -11.6958
  44   2.0000      -0.420295       -11.4368
  45   2.0000      -0.415201       -11.2982
  46   2.0000      -0.402394       -10.9497
  47   2.0000      -0.396690       -10.7945
  48   2.0000      -0.393219       -10.7000
  49   2.0000      -0.384546       -10.4640
  50   2.0000      -0.379610       -10.3297
  51   2.0000      -0.369087       -10.0434
  52   2.0000      -0.363129        -9.8812
  53   2.0000      -0.360465        -9.8087
  54   2.0000      -0.352755        -9.5990
  55   2.0000      -0.345486        -9.4011
  56   2.0000      -0.335824        -9.1382
  57   2.0000      -0.328134        -8.9290
  58   2.0000      -0.319170        -8.6851
  59   2.0000      -0.313866        -8.5407
  60   2.0000      -0.304875        -8.2961
  61   2.0000      -0.293871        -7.9966
  62   2.0000      -0.280652        -7.6369
  63   2.0000      -0.245743        -6.6870
  64   2.0000      -0.238961        -6.5024
  65   2.0000      -0.238377        -6.4866
  66   2.0000      -0.236557        -6.4370
  67   2.0000      -0.213169        -5.8006
  68   2.0000      -0.201530        -5.4839
  69   2.0000      -0.184441        -5.0189
  70   0.0000      -0.122059        -3.3214
  71   0.0000      -0.074959        -2.0397
  72   0.0000      -0.048282        -1.3138
  73   0.0000      -0.028129        -0.7654
  74   0.0000       0.011637         0.3167

MULLIKEN ATOMIC CHARGES
-----------------------
   0 C :   -0.022155
   1 C :   -0.017312
   2 C :   -0.133015
   3 C :    0.050100
   4 C :    0.038345
   5 C :   -0.126243
   6 C :    0.085769
   7 O :   -0.152474
   8 C :    0.019921
   9 C :   -0.141344
  10 C :   -0.010647
  11 C :   -0.171052
  12 C :    0.088914
  13 C :    0.049776
  14 C :    0.070497
  15 O :   -0.211014
  16 N :   -0.234448
  17 C :   -0.081875
  18 C :   -0.003946
  19 O :   -0.422072
  20 H :    0.061351
  21 H :    0.061328
  22 H :    0.059897
  23 H :    0.057169
  24 H :    0.054491
  25 H :    0.057438
  26 H :    0.035644
  27 H :    0.244976
  28 H :    0.111496
  29 H :    0.092987
  30 H :    0.103952
  31 H :    0.084793
  32 H :    0.298752
Sum of atomic charges:    0.0000000

LOEWDIN ATOMIC CHARGES
----------------------
   0 C :   -0.108982
   1 C :   -0.105583
   2 C :   -0.088605
   3 C :   -0.043940
   4 C :   -0.054008
   5 C :   -0.083743
   6 C :    0.058628
   7 O :   -0.132816
   8 C :   -0.044640
   9 C :   -0.113248
  10 C :   -0.098290
  11 C :   -0.148395
  12 C :    0.034088
  13 C :   -0.091158
  14 C :    0.055570
  15 O :   -0.170715
  16 N :   -0.127021
  17 C :   -0.177075
  18 C :   -0.132074
  19 O :   -0.329152
  20 H :    0.128132
  21 H :    0.128132
  22 H :    0.135455
  23 H :    0.135300
  24 H :    0.134422
  25 H :    0.128787
  26 H :    0.125067
  27 H :    0.237627
  28 H :    0.125088
  29 H :    0.115464
  30 H :    0.121485
  31 H :    0.100665
  32 H :    0.285536

  Mayer bond orders larger than 0.100000
B(  0-C ,  1-C ) :   1.3270 B(  0-C ,  5-C ) :   1.3377 B(  0-C , 20-H ) :   0.9669
B(  1-C ,  2-C ) :   1.3359 B(  1-C , 21-H ) :   0.9666 B(  2-C ,  3-C ) :   1.3825
B(  2-C , 22-H ) :   0.9541 B(  3-C ,  4-C ) :   1.3364 B(  3-C , 14-C ) :   0.9761
B(  4-C ,  5-C ) :   1.3770 B(  4-C ,  6-C ) :   0.9570 B(  5-C , 23-H ) :   0.9571
B(  6-C ,  7-O ) :   2.1541 B(  6-C ,  8-C ) :   0.9501 B(  8-C ,  9-C ) :   1.4282
B(  8-C , 13-C ) :   1.3044 B(  9-C , 10-C ) :   1.2326 B(  9-C , 24-H ) :   0.9564
B( 10-C , 11-C ) :   1.4057 B( 10-C , 25-H ) :   0.9645 B( 11-C , 12-C ) :   1.2291
B( 11-C , 26-H ) :   0.9546 B( 12-C , 13-C ) :   1.2087 B( 12-C , 16-N ) :   1.3907
B( 13-C , 14-C ) :   1.0222 B( 14-C , 15-O ) :   1.9718 B( 15-O , 27-H ) :   0.1391
B( 16-N , 17-C ) :   1.0217 B( 16-N , 27-H ) :   0.7514 B( 17-C , 18-C ) :   1.0877
B( 17-C , 28-H ) :   0.8997 B( 17-C , 29-H ) :   0.9170 B( 18-C , 19-O ) :   1.0666
B( 18-C , 30-H ) :   0.9251 B( 18-C , 31-H ) :   0.9220 B( 19-O , 32-H ) :   0.8496

Dispersion correction           -0.046406326
FINAL SINGLE POINT ENERGY      -896.120810295635

DIPOLE MOMENT
-------------

Method             : SCF
Type of density    : Electron Density
Multiplicity       :   1
Irrep              :   0
Energy             :  -896.2182369865265628 Eh
Relativity type    :
Basis              : AO
                                X                 Y                 Z
Electronic contribution:    -11.472830368       3.126523293      -1.352100706
Nuclear contribution   :     13.061951931      -3.501841718       1.129208812
                        -----------------------------------------
Total Dipole Moment    :      1.589121563      -0.375318425      -0.222891894
                        -----------------------------------------
Magnitude (a.u.)       :      1.647984241
Magnitude (Debye)      :      4.188843047

Rotational constants in cm-1:             0.018680             0.008299             0.005878
Rotational constants in MHz :           560.025706           248.801322           176.222113

                             ****ORCA TERMINATED NORMALLY****
TOTAL RUN TIME: 0 days 0 hours 0 minutes 34 seconds 11 msec
