                         Program Version 6.0.0  -   RELEASE  -
|  1> ! r2scan-3c def2/J RI DEFGRID2 scfconv6 printgap
|  2> %output
|  3>     printlevel normal
|  4> end
|  5> * xyz 0 1
|  6> C 2.7577635757 -0.9675657975 -0.115763293
|  7> C 2.3155941087 0.3049628546 0.5982525609
|  8> C 1.3945477193 1.1850462074 -0.2493242233
|  9> C 0.0798670495 0.5243859515 -0.6753036327
| 10> C -0.7870943355 0.1589828931 0.5165755472
| 11> Cl -2.3838711022 -0.4623279112 -0.0349570938
| 12> H 1.9183306143 -1.637047988 -0.2828904211
| 13> H 3.4955975521 -1.4966093872 0.4824976449
| 14> H 3.2050605063 -0.7277097149 -1.0776666684
| 15> H 1.8224076133 0.0454240062 1.5359598498
| 16> H 3.2013583472 0.8926356584 0.8491803452
| 17> H 1.9289045213 1.479518067 -1.1544371943
| 18> H 1.1663121719 2.0935061732 0.3116753373
| 19> H 0.2821230632 -0.3686786187 -1.266688141
| 20> H -0.4694029624 1.2231356833 -1.3092114766
| 21> H -0.350159145 -0.6378934892 1.11409311
| 22> H -0.9967647307 1.0266675154 1.1400528794
| 23> *
| 24>
| 25>                          ****END OF INPUT****

CARTESIAN COORDINATES (ANGSTROEM)
---------------------------------
  C      2.757764   -0.967566   -0.115763
  C      2.315594    0.304963    0.598253
  C      1.394548    1.185046   -0.249324
  C      0.079867    0.524386   -0.675304
  C     -0.787094    0.158983    0.516576
  Cl    -2.383871   -0.462328   -0.034957
  H      1.918331   -1.637048   -0.282890
  H      3.495598   -1.496609    0.482498
  H      3.205061   -0.727710   -1.077667
  H      1.822408    0.045424    1.535960
  H      3.201358    0.892636    0.849180
  H      1.928905    1.479518   -1.154437
  H      1.166312    2.093506    0.311675
  H      0.282123   -0.368679   -1.266688
  H     -0.469403    1.223136   -1.309211
  H     -0.350159   -0.637893    1.114093
  H     -0.996765    1.026668    1.140053

 Total Charge           Charge          ....    0
 Multiplicity           Mult            ....    1
 Number of Electrons    NEL             ....   58
 Basis Dimension        Dim             ....  177

ORBITAL ENERGIES
----------------

  NO   OCC          E(Eh)            E(eV)
   0   2.0000    -101.196670     -2753.7014
   1   2.0000     -10.090975      -274.5894
   2   2.0000     -10.039593      -273.1912
   3   2.0000     -10.036383      -273.1039
   4   2.0000     -10.033896      -273.0362
   5   2.0000     -10.023436      -272.7516
   6   2.0000      -9.352672      -254.4991
   7   2.0000      -7.098887      -193.1705
   8   2.0000      -7.088747      -192.8946
   9   2.0000      -7.088688      -192.8930
  10   2.0000      -0.821204       -22.3461
  11   2.0000      -0.772016       -21.0076
  12   2.0000      -0.709648       -19.3105
  13   2.0000      -0.642062       -17.4714
  14   2.0000      -0.592481       -16.1222
  15   2.0000      -0.534825       -14.5533
  16   2.0000      -0.460259       -12.5243
  17   2.0000      -0.443011       -12.0549
  18   2.0000      -0.410926       -11.1819
  19   2.0000      -0.399165       -10.8618
  20   2.0000      -0.392538       -10.6815
  21   2.0000      -0.356296        -9.6953
  22   2.0000      -0.347905        -9.4670
  23   2.0000      -0.342867        -9.3299
  24   2.0000      -0.309788        -8.4298
  25   2.0000      -0.301282        -8.1983
  26   2.0000      -0.299694        -8.1551
  27   2.0000      -0.263047        -7.1579
  28   2.0000      -0.260306        -7.0833
  29   0.0000       0.006667         0.1814
  30   0.0000       0.081184         2.2091
  31   0.0000       0.101722         2.7680
  32   0.0000       0.109507         2.9798
  33   0.0000       0.119035         3.2391

MULLIKEN ATOMIC CHARGES
-----------------------
   0 C :   -0.475535
   1 C :   -0.253895
   2 C :   -0.280520
   3 C :   -0.285875
   4 C :   -0.176767
   5 Cl:   -0.200807
   6 H :    0.149176
   7 H :    0.148955
   8 H :    0.147556
   9 H :    0.140994
  10 H :    0.143665
  11 H :    0.150711
  12 H :    0.145778
  13 H :    0.162203
  14 H :    0.159156
  15 H :    0.164465
  16 H :    0.160740
Sum of atomic charges:    0.0000000

LOEWDIN ATOMIC CHARGES
----------------------
   0 C :   -0.424996
   1 C :   -0.320000
   2 C :   -0.310736
   3 C :   -0.331589
   4 C :   -0.321946
   5 Cl:   -0.002956
   6 H :    0.149028
   7 H :    0.152838
   8 H :    0.151906
   9 H :    0.149478
  10 H :    0.154167
  11 H :    0.159172
  12 H :    0.156300
  13 H :    0.161095
  14 H :    0.163099
  15 H :    0.157240
  16 H :    0.157901

  Mayer bond orders larger than 0.100000
B(  0-C ,  1-C ) :   0.8929 B(  0-C ,  6-H ) :   0.9782 B(  0-C ,  7-H ) :   0.9678
B(  0-C ,  8-H ) :   0.9803 B(  1-C ,  2-C ) :   0.8987 B(  1-C ,  9-H ) :   0.9837
B(  1-C , 10-H ) :   0.9618 B(  2-C ,  3-C ) :   0.8757 B(  2-C , 11-H ) :   0.9746
B(  2-C , 12-H ) :   0.9783 B(  3-C ,  4-C ) :   0.9257 B(  3-C , 13-H ) :   0.9788
B(  3-C , 14-H ) :   0.9591 B(  4-C ,  5-Cl) :   0.9816 B(  4-C , 15-H ) :   0.9594
B(  4-C , 16-H ) :   0.9594

Dispersion correction           -0.004451930
FINAL SINGLE POINT ENERGY      -657.267302415884

DIPOLE MOMENT
-------------

Method             : SCF
Type of density    : Electron Density
Multiplicity       :   1
Irrep              :   0
Energy             :  -657.2731297189050110 Eh
Relativity type    :
Basis              : AO
                                X                 Y                 Z
Electronic contribution:    -16.577273251      -2.065602522      -0.202872151
Nuclear contribution   :     17.463337654       2.396443105       0.368303439
                        -----------------------------------------
Total Dipole Moment    :      0.886064402       0.330840583       0.165431288
                        -----------------------------------------
Magnitude (a.u.)       :      0.960173488
Magnitude (Debye)      :      2.440567052

Rotational constants in cm-1:             0.211204             0.036444             0.034285
Rotational constants in MHz :          6331.749992          1092.570174          1027.846705

                             ****ORCA TERMINATED NORMALLY****
TOTAL RUN TIME: 0 days 0 hours 0 minutes 19 seconds 696 msec
