                         Program Version 6.0.0  -   RELEASE  -
|  1> ! r2scan-3c def2/J RI DEFGRID2 scfconv6 printgap
|  2> %output
|  3>     printlevel normal
|  4> end
|  5> %cpcm
|  6>     smd true
|  7>     smdsolvent "water"
|  8> end
|  9> * xyz 0 1
| 10> C 2.7577635757 -0.9675657975 -0.115763293
| 11> C 2.3155941087 0.3049628546 0.5982525609
| 12> C 1.3945477193 1.1850462074 -0.2493242233
| 13> C 0.0798670495 0.5243859515 -0.6753036327
| 14> C -0.7870943355 0.1589828931 0.5165755472
| 15> Cl -2.3838711022 -0.4623279112 -0.0349570938
| 16> H 1.9183306143 -1.637047988 -0.2828904211
| 17> H 3.4955975521 -1.4966093872 0.4824976449
| 18> H 3.2050605063 -0.7277097149 -1.0776666684
| 19> H 1.8224076133 0.0454240062 1.5359598498
| 20> H 3.2013583472 0.8926356584 0.8491803452
| 21> H 1.9289045213 1.479518067 -1.1544371943
| 22> H 1.1663121719 2.0935061732 0.3116753373
| 23> H 0.2821230632 -0.3686786187 -1.266688141
| 24> H -0.4694029624 1.2231356833 -1.3092114766
| 25> H -0.350159145 -0.6378934892 1.11409311
| 26> H -0.9967647307 1.0266675154 1.1400528794
| 27> *
| 28>
| 29>                          ****END OF INPUT****

CARTESIAN COORDINATES (ANGSTROEM)
---------------------------------
  C      2.757764   -0.967566   -0.115763
  C      2.315594    0.304963    0.598253
  C      1.394548    1.185046   -0.249324
  C      0.079867    0.524386   -0.675304
  C     -0.787094    0.158983    0.516576
  Cl    -2.383871   -0.462328   -0.034957
  H      1.918331   -1.637048   -0.282890
  H      3.495598   -1.496609    0.482498
  H      3.205061   -0.727710   -1.077667
  H      1.822408    0.045424    1.535960
  H      3.201358    0.892636    0.849180
  H      1.928905    1.479518   -1.154437
  H      1.166312    2.093506    0.311675
  H      0.282123   -0.368679   -1.266688
  H     -0.469403    1.223136   -1.309211
  H     -0.350159   -0.637893    1.114093
  H     -0.996765    1.026668    1.140053

 Total Charge           Charge          ....    0
 Multiplicity           Mult            ....    1
 Number of Electrons    NEL             ....   58
 Basis Dimension        Dim             ....  177

ORBITAL ENERGIES
----------------

  NO   OCC          E(Eh)            E(eV)
   0   2.0000    -101.198167     -2753.7421
   1   2.0000     -10.079958      -274.2896
   2   2.0000     -10.026331      -272.8303
   3   2.0000     -10.020336      -272.6672
   4   2.0000     -10.017086      -272.5788
   5   2.0000     -10.007294      -272.3123
   6   2.0000      -9.354561      -254.5505
   7   2.0000      -7.100350      -193.2103
   8   2.0000      -7.090811      -192.9508
   9   2.0000      -7.090759      -192.9494
  10   2.0000      -0.816910       -22.2293
  11   2.0000      -0.758767       -20.6471
  12   2.0000      -0.697271       -18.9737
  13   2.0000      -0.629319       -17.1246
  14   2.0000      -0.578963       -15.7544
  15   2.0000      -0.519893       -14.1470
  16   2.0000      -0.446093       -12.1388
  17   2.0000      -0.429038       -11.6747
  18   2.0000      -0.396936       -10.8012
  19   2.0000      -0.385445       -10.4885
  20   2.0000      -0.383430       -10.4336
  21   2.0000      -0.342206        -9.3119
  22   2.0000      -0.334264        -9.0958
  23   2.0000      -0.331149        -9.0110
  24   2.0000      -0.294806        -8.0221
  25   2.0000      -0.286260        -7.7895
  26   2.0000      -0.284595        -7.7442
  27   2.0000      -0.264297        -7.1919
  28   2.0000      -0.259841        -7.0706
  29   0.0000       0.011598         0.3156
  30   0.0000       0.096463         2.6249
  31   0.0000       0.115295         3.1373
  32   0.0000       0.124439         3.3862
  33   0.0000       0.133269         3.6264

MULLIKEN ATOMIC CHARGES
-----------------------
   0 C :   -0.516122
   1 C :   -0.259233
   2 C :   -0.296692
   3 C :   -0.295791
   4 C :   -0.183674
   5 Cl:   -0.250617
   6 H :    0.160462
   7 H :    0.156013
   8 H :    0.156451
   9 H :    0.153206
  10 H :    0.149824
  11 H :    0.160478
  12 H :    0.156881
  13 H :    0.170250
  14 H :    0.164451
  15 H :    0.189026
  16 H :    0.185088
Sum of atomic charges:    0.0000000

LOEWDIN ATOMIC CHARGES
----------------------
   0 C :   -0.433662
   1 C :   -0.321029
   2 C :   -0.309829
   3 C :   -0.333003
   4 C :   -0.316093
   5 Cl:   -0.036617
   6 H :    0.151946
   7 H :    0.153497
   8 H :    0.153477
   9 H :    0.153765
  10 H :    0.155234
  11 H :    0.161932
  12 H :    0.160127
  13 H :    0.162657
  14 H :    0.163602
  15 H :    0.166900
  16 H :    0.167097

  Mayer bond orders larger than 0.100000
B(  0-C ,  1-C ) :   0.8834 B(  0-C ,  6-H ) :   0.9767 B(  0-C ,  7-H ) :   0.9666
B(  0-C ,  8-H ) :   0.9783 B(  1-C ,  2-C ) :   0.8979 B(  1-C ,  9-H ) :   0.9825
B(  1-C , 10-H ) :   0.9634 B(  2-C ,  3-C ) :   0.8802 B(  2-C , 11-H ) :   0.9742
B(  2-C , 12-H ) :   0.9773 B(  3-C ,  4-C ) :   0.9203 B(  3-C , 13-H ) :   0.9777
B(  3-C , 14-H ) :   0.9586 B(  4-C ,  5-Cl) :   0.9380 B(  4-C , 15-H ) :   0.9529
B(  4-C , 16-H ) :   0.9526

Dispersion correction           -0.004451930
FINAL SINGLE POINT ENERGY      -657.269035992296

DIPOLE MOMENT
-------------

Method             : SCF
Type of density    : Electron Density
Multiplicity       :   1
Irrep              :   0
Energy             :  -657.2748632953163224 Eh
Relativity type    :
Basis              : AO
                                X                 Y                 Z
Electronic contribution:    -16.372268249      -1.958988382      -0.097023813
Nuclear contribution   :     17.463337654       2.396443105       0.368303439
                        -----------------------------------------
Total Dipole Moment    :      1.091069405       0.437454723       0.271279626
                        -----------------------------------------
Magnitude (a.u.)       :      1.206396169
Magnitude (Debye)      :      3.066415369

Rotational constants in cm-1:             0.211204             0.036444             0.034285
Rotational constants in MHz :          6331.749992          1092.570174          1027.846705

                             ****ORCA TERMINATED NORMALLY****
TOTAL RUN TIME: 0 days 0 hours 0 minutes 25 seconds 308 msec
