                         Program Version 6.0.0  -   RELEASE  -
|  1> ! pbe def2-sv(p) def2/J RI DEFGRID1 loosescf d4 GCP(DFT/SV(P)) printgap
|  2> %output
|  3>     printlevel normal
|  4> end
|  5> * xyz 0 1
|  6> C 2.2624831775 1.0949695926 0.7658233307
|  7> C 1.3781335633 0.4047337207 -0.2600140019
|  8> C 2.1609016255 -0.560897121 -1.1346403144
|  9> S 0.0276757968 -0.5078204514 0.6171228667
| 10> C -1.4798714394 0.3186086992 -0.0590868257
| 11> C -1.7468658548 -0.1394061843 -1.4828650105
| 12> C -2.6394374944 -0.0061574186 0.8686680072
| 13> H 1.6739963434 1.7652156856 1.3880115538
| 14> H 2.7352830416 0.3561493891 1.4087923138
| 15> H 3.0366242787 1.6706274068 0.2629165715
| 16> H 0.8712009761 1.1490320838 -0.8777411153
| 17> H 1.5019060251 -1.0612918558 -1.8401643807
| 18> H 2.6398396827 -1.3177475172 -0.5176474355
| 19> H 2.9269667818 -0.0233113043 -1.6894230446
| 20> H -1.2674223428 1.3910333068 -0.0305406812
| 21> H -2.6348253972 0.3563538321 -1.8694894044
| 22> H -0.9090324615 0.0965068445 -2.1354811075
| 23> H -1.908451532 -1.2148601761 -1.5019773371
| 24> H -3.5401094143 0.4975328311 0.525843521
| 25> H -2.4173306841 0.3169279127 1.8826745731
| 26> H -2.8184753961 -1.078826992 0.8814587656
| 27> *
| 28>
| 29>                          ****END OF INPUT****

CARTESIAN COORDINATES (ANGSTROEM)
---------------------------------
  C      2.262483    1.094970    0.765823
  C      1.378134    0.404734   -0.260014
  C      2.160902   -0.560897   -1.134640
  S      0.027676   -0.507820    0.617123
  C     -1.479871    0.318609   -0.059087
  C     -1.746866   -0.139406   -1.482865
  C     -2.639437   -0.006157    0.868668
  H      1.673996    1.765216    1.388012
  H      2.735283    0.356149    1.408792
  H      3.036624    1.670627    0.262917
  H      0.871201    1.149032   -0.877741
  H      1.501906   -1.061292   -1.840164
  H      2.639840   -1.317748   -0.517647
  H      2.926967   -0.023311   -1.689423
  H     -1.267422    1.391033   -0.030541
  H     -2.634825    0.356354   -1.869489
  H     -0.909032    0.096507   -2.135481
  H     -1.908452   -1.214860   -1.501977
  H     -3.540109    0.497533    0.525844
  H     -2.417331    0.316928    1.882675
  H     -2.818475   -1.078827    0.881459

 Total Charge           Charge          ....    0
 Multiplicity           Mult            ....    1
 Number of Electrons    NEL             ....   66
 Basis Dimension        Dim             ....  130

ORBITAL ENERGIES
----------------

  NO   OCC          E(Eh)            E(eV)
   0   2.0000     -88.001973     -2394.6554
   1   2.0000      -9.922608      -270.0079
   2   2.0000      -9.921257      -269.9711
   3   2.0000      -9.879476      -268.8342
   4   2.0000      -9.877929      -268.7921
   5   2.0000      -9.876568      -268.7551
   6   2.0000      -9.876479      -268.7527
   7   2.0000      -7.645941      -208.0566
   8   2.0000      -5.674456      -154.4098
   9   2.0000      -5.670773      -154.3096
  10   2.0000      -5.662216      -154.0767
  11   2.0000      -0.748261       -20.3612
  12   2.0000      -0.713785       -19.4231
  13   2.0000      -0.618145       -16.8206
  14   2.0000      -0.614938       -16.7333
  15   2.0000      -0.613667       -16.6987
  16   2.0000      -0.515456       -14.0263
  17   2.0000      -0.494408       -13.4535
  18   2.0000      -0.427101       -11.6220
  19   2.0000      -0.413214       -11.2441
  20   2.0000      -0.392215       -10.6727
  21   2.0000      -0.375946       -10.2300
  22   2.0000      -0.366410        -9.9705
  23   2.0000      -0.361840        -9.8462
  24   2.0000      -0.344902        -9.3853
  25   2.0000      -0.343421        -9.3450
  26   2.0000      -0.315574        -8.5872
  27   2.0000      -0.308976        -8.4077
  28   2.0000      -0.304147        -8.2763
  29   2.0000      -0.300965        -8.1897
  30   2.0000      -0.280467        -7.6319
  31   2.0000      -0.253098        -6.8872
  32   2.0000      -0.174276        -4.7423
  33   0.0000       0.011468         0.3121
  34   0.0000       0.028375         0.7721
  35   0.0000       0.043023         1.1707
  36   0.0000       0.068485         1.8636
  37   0.0000       0.068815         1.8726

MULLIKEN ATOMIC CHARGES
-----------------------
   0 C :   -0.201864
   1 C :   -0.302041
   2 C :   -0.206927
   3 S :   -0.043985
   4 C :   -0.304995
   5 C :   -0.204419
   6 C :   -0.227857
   7 H :    0.104953
   8 H :    0.104499
   9 H :    0.099694
  10 H :    0.114566
  11 H :    0.108485
  12 H :    0.104138
  13 H :    0.098881
  14 H :    0.116347
  15 H :    0.097169
  16 H :    0.110603
  17 H :    0.103248
  18 H :    0.107743
  19 H :    0.113108
  20 H :    0.108654
Sum of atomic charges:   -0.0000000

LOEWDIN ATOMIC CHARGES
----------------------
   0 C :   -0.345121
   1 C :   -0.245960
   2 C :   -0.345949
   3 S :    0.199656
   4 C :   -0.244956
   5 C :   -0.348392
   6 C :   -0.346113
   7 H :    0.119556
   8 H :    0.120480
   9 H :    0.118303
  10 H :    0.119074
  11 H :    0.119231
  12 H :    0.120739
  13 H :    0.118152
  14 H :    0.116816
  15 H :    0.117991
  16 H :    0.117301
  17 H :    0.121064
  18 H :    0.123630
  19 H :    0.122376
  20 H :    0.122122

  Mayer bond orders larger than 0.100000
B(  0-C ,  1-C ) :   1.0886 B(  0-C ,  7-H ) :   0.9488 B(  0-C ,  8-H ) :   0.9498
B(  0-C ,  9-H ) :   0.9417 B(  1-C ,  2-C ) :   1.0864 B(  1-C ,  3-S ) :   0.9999
B(  1-C , 10-H ) :   0.8942 B(  2-C , 11-H ) :   0.9476 B(  2-C , 12-H ) :   0.9495
B(  2-C , 13-H ) :   0.9415 B(  3-S ,  4-C ) :   1.0275 B(  4-C ,  5-C ) :   1.0725
B(  4-C ,  6-C ) :   1.1017 B(  4-C , 14-H ) :   0.9020 B(  5-C , 15-H ) :   0.9364
B(  5-C , 16-H ) :   0.9446 B(  5-C , 17-H ) :   0.9468 B(  6-C , 18-H ) :   0.9465
B(  6-C , 19-H ) :   0.9470 B(  6-C , 20-H ) :   0.9473

Dispersion correction           -0.018478105
FINAL SINGLE POINT ENERGY      -634.346781760812

DIPOLE MOMENT
-------------

Method             : SCF
Type of density    : Electron Density
Multiplicity       :   1
Irrep              :   0
Energy             :  -634.4136647482980607 Eh
Relativity type    :
Basis              : AO
                                X                 Y                 Z
Electronic contribution:      0.030321882      -2.277332981       3.484248660
Nuclear contribution   :     -0.103839985       2.738515322      -3.876320867
                        -----------------------------------------
Total Dipole Moment    :     -0.073518103       0.461182341      -0.392072206
                        -----------------------------------------
Magnitude (a.u.)       :      0.609766085
Magnitude (Debye)      :      1.549902215

Rotational constants in cm-1:             0.119862             0.041461             0.036002
Rotational constants in MHz :          3593.379148          1242.972131          1079.304003

                             ****ORCA TERMINATED NORMALLY****
TOTAL RUN TIME: 0 days 0 hours 0 minutes 9 seconds 326 msec
