                         Program Version 6.0.0  -   RELEASE  -
|  1> ! r2scan-3c def2/J RI DEFGRID2 scfconv6 printgap
|  2> %output
|  3>     printlevel normal
|  4> end
|  5> * xyz 0 1
|  6> C -4.6785767008 -0.9169329684 0.2322056312
|  7> C -4.020921123 -2.1326661244 0.1044878592
|  8> C -2.6460389505 -2.1646076603 -0.0357634011
|  9> C -1.9035537297 -0.9855194195 -0.050385168
| 10> C -2.568252031 0.2389272783 0.0793059918
| 11> C -3.9548860204 0.2602128844 0.2194248351
| 12> C -1.821350396 1.5029333858 0.0708175874
| 13> O -2.3931190016 2.5867066709 0.1796031041
| 14> C -0.3589276498 1.410123247 -0.072293582
| 15> C 0.3478007387 2.5999346927 -0.0539309443
| 16> C 1.7359354004 2.5973286345 -0.1666479654
| 17> C 2.4116176803 1.416632579 -0.3126682056
| 18> C 1.7321257655 0.1755247285 -0.3572559309
| 19> C 0.308763999 0.1701676457 -0.2191222971
| 20> C -0.4378621963 -1.0678325298 -0.207888291
| 21> O 0.0901485664 -2.1899076295 -0.3178267527
| 22> N 2.398016696 -0.9708116469 -0.5483968874
| 23> C 3.8241477342 -1.1508116042 -0.649080185
| 24> C 4.5409704014 -1.1449742566 0.721532924
| 25> O 4.9605288775 0.1357403392 1.1342720388
| 26> H -5.7512586237 -0.8889887879 0.3416552969
| 27> H -4.5810715064 -3.0545090657 0.1142836991
| 28> H -2.1161432827 -3.1001501635 -0.1372865114
| 29> H -4.4394023308 1.220486987 0.3174225781
| 30> H -0.2034068314 3.5208372927 0.059782717
| 31> H 2.2764211354 3.5301289317 -0.1335604795
| 32> H 3.4859018479 1.4245249894 -0.3669210062
| 33> H 1.8245810412 -1.810042542 -0.4877620848
| 34> H 4.2556343129 -0.3781706688 -1.2900553909
| 35> H 3.984840254 -2.1200441904 -1.1207384229
| 36> H 5.3934942091 -1.8307095371 0.6859837133
| 37> H 3.8473018297 -1.4945352325 1.4899672962
| 38> H 5.7574298195 0.3848607767 0.6461467845
| 39> *
| 40>
| 41>                          ****END OF INPUT****

CARTESIAN COORDINATES (ANGSTROEM)
---------------------------------
  C     -4.678577   -0.916933    0.232206
  C     -4.020921   -2.132666    0.104488
  C     -2.646039   -2.164608   -0.035763
  C     -1.903554   -0.985519   -0.050385
  C     -2.568252    0.238927    0.079306
  C     -3.954886    0.260213    0.219425
  C     -1.821350    1.502933    0.070818
  O     -2.393119    2.586707    0.179603
  C     -0.358928    1.410123   -0.072294
  C      0.347801    2.599935   -0.053931
  C      1.735935    2.597329   -0.166648
  C      2.411618    1.416633   -0.312668
  C      1.732126    0.175525   -0.357256
  C      0.308764    0.170168   -0.219122
  C     -0.437862   -1.067833   -0.207888
  O      0.090149   -2.189908   -0.317827
  N      2.398017   -0.970812   -0.548397
  C      3.824148   -1.150812   -0.649080
  C      4.540970   -1.144974    0.721533
  O      4.960529    0.135740    1.134272
  H     -5.751259   -0.888989    0.341655
  H     -4.581072   -3.054509    0.114284
  H     -2.116143   -3.100150   -0.137287
  H     -4.439402    1.220487    0.317423
  H     -0.203407    3.520837    0.059783
  H      2.276421    3.530129   -0.133560
  H      3.485902    1.424525   -0.366921
  H      1.824581   -1.810043   -0.487762
  H      4.255634   -0.378171   -1.290055
  H      3.984840   -2.120044   -1.120738
  H      5.393494   -1.830710    0.685984
  H      3.847302   -1.494535    1.489967
  H      5.757430    0.384861    0.646147

 Total Charge           Charge          ....    0
 Multiplicity           Mult            ....    1
 Number of Electrons    NEL             ....  140
 Basis Dimension        Dim             ....  465

ORBITAL ENERGIES
----------------

  NO   OCC          E(Eh)            E(eV)
   0   2.0000     -18.968951      -516.1714
   1   2.0000     -18.938750      -515.3496
   2   2.0000     -18.933274      -515.2006
   3   2.0000     -14.186885      -386.0448
   4   2.0000     -10.120800      -275.4010
   5   2.0000     -10.117619      -275.3144
   6   2.0000     -10.099641      -274.8252
   7   2.0000     -10.095423      -274.7104
   8   2.0000     -10.085622      -274.4437
   9   2.0000     -10.055958      -273.6365
  10   2.0000     -10.054005      -273.5834
  11   2.0000     -10.053558      -273.5712
  12   2.0000     -10.052854      -273.5521
  13   2.0000     -10.051007      -273.5018
  14   2.0000     -10.050015      -273.4748
  15   2.0000     -10.049749      -273.4676
  16   2.0000     -10.047160      -273.3971
  17   2.0000     -10.046561      -273.3808
  18   2.0000     -10.044026      -273.3118
  19   2.0000     -10.036714      -273.1129
  20   2.0000      -1.007045       -27.4031
  21   2.0000      -1.002748       -27.2862
  22   2.0000      -0.997391       -27.1404
  23   2.0000      -0.926709       -25.2170
  24   2.0000      -0.847382       -23.0584
  25   2.0000      -0.830237       -22.5919
  26   2.0000      -0.770473       -20.9656
  27   2.0000      -0.747925       -20.3521
  28   2.0000      -0.734023       -19.9738
  29   2.0000      -0.727982       -19.8094
  30   2.0000      -0.697435       -18.9782
  31   2.0000      -0.647674       -17.6241
  32   2.0000      -0.633081       -17.2270
  33   2.0000      -0.614028       -16.7085
  34   2.0000      -0.603666       -16.4266
  35   2.0000      -0.567392       -15.4395
  36   2.0000      -0.549699       -14.9581
  37   2.0000      -0.522553       -14.2194
  38   2.0000      -0.515809       -14.0359
  39   2.0000      -0.501435       -13.6447
  40   2.0000      -0.479643       -13.0518
  41   2.0000      -0.464079       -12.6282
  42   2.0000      -0.456680       -12.4269
  43   2.0000      -0.444650       -12.0995
  44   2.0000      -0.440015       -11.9734
  45   2.0000      -0.434273       -11.8172
  46   2.0000      -0.424062       -11.5393
  47   2.0000      -0.411757       -11.2045
  48   2.0000      -0.408492       -11.1156
  49   2.0000      -0.404072       -10.9954
  50   2.0000      -0.398944       -10.8558
  51   2.0000      -0.393024       -10.6947
  52   2.0000      -0.383997       -10.4491
  53   2.0000      -0.372632       -10.1398
  54   2.0000      -0.368392       -10.0245
  55   2.0000      -0.361127        -9.8268
  56   2.0000      -0.349213        -9.5026
  57   2.0000      -0.342254        -9.3132
  58   2.0000      -0.333042        -9.0625
  59   2.0000      -0.327229        -8.9044
  60   2.0000      -0.319541        -8.6952
  61   2.0000      -0.313492        -8.5305
  62   2.0000      -0.298866        -8.1326
  63   2.0000      -0.260518        -7.0891
  64   2.0000      -0.256814        -6.9883
  65   2.0000      -0.247470        -6.7340
  66   2.0000      -0.247113        -6.7243
  67   2.0000      -0.230838        -6.2814
  68   2.0000      -0.218331        -5.9411
  69   2.0000      -0.192008        -5.2248
  70   0.0000      -0.125348        -3.4109
  71   0.0000      -0.075680        -2.0593
  72   0.0000      -0.045936        -1.2500
  73   0.0000      -0.024903        -0.6776
  74   0.0000       0.026611         0.7241

MULLIKEN ATOMIC CHARGES
-----------------------
   0 C :   -0.132515
   1 C :   -0.128343
   2 C :   -0.230007
   3 C :    0.189117
   4 C :    0.140106
   5 C :   -0.216787
   6 C :    0.032155
   7 O :   -0.355662
   8 C :    0.196397
   9 C :   -0.252304
  10 C :   -0.170478
  11 C :   -0.249841
  12 C :    0.284538
  13 C :   -0.147496
  14 C :    0.014482
  15 O :   -0.441125
  16 N :   -0.009919
  17 C :   -0.354119
  18 C :   -0.132590
  19 O :   -0.412040
  20 H :    0.148593
  21 H :    0.148233
  22 H :    0.182063
  23 H :    0.181864
  24 H :    0.184450
  25 H :    0.146620
  26 H :    0.167792
  27 H :    0.308078
  28 H :    0.161973
  29 H :    0.157694
  30 H :    0.133265
  31 H :    0.153006
  32 H :    0.302798
Sum of atomic charges:    0.0000000

LOEWDIN ATOMIC CHARGES
----------------------
   0 C :   -0.144470
   1 C :   -0.141494
   2 C :   -0.102974
   3 C :   -0.025469
   4 C :   -0.035319
   5 C :   -0.097668
   6 C :    0.268965
   7 O :   -0.482323
   8 C :   -0.025755
   9 C :   -0.121819
  10 C :   -0.128375
  11 C :   -0.126843
  12 C :    0.204384
  13 C :   -0.035822
  14 C :    0.269386
  15 O :   -0.542750
  16 N :   -0.677527
  17 C :   -0.026916
  18 C :    0.027525
  19 O :   -0.610247
  20 H :    0.170243
  21 H :    0.170079
  22 H :    0.192583
  23 H :    0.191691
  24 H :    0.193256
  25 H :    0.171468
  26 H :    0.183846
  27 H :    0.294947
  28 H :    0.184404
  29 H :    0.189165
  30 H :    0.160230
  31 H :    0.188001
  32 H :    0.265596

  Mayer bond orders larger than 0.100000
B(  0-C ,  1-C ) :   1.3217 B(  0-C ,  5-C ) :   1.3574 B(  0-C , 20-H ) :   0.9557
B(  1-C ,  2-C ) :   1.3504 B(  1-C , 21-H ) :   0.9555 B(  2-C ,  3-C ) :   1.3543
B(  2-C , 15-O ) :   0.1033 B(  2-C , 22-H ) :   0.9596 B(  3-C ,  4-C ) :   1.5230
B(  3-C , 14-C ) :   0.9183 B(  3-C , 15-O ) :  -0.2049 B(  4-C ,  5-C ) :   1.3493
B(  4-C ,  6-C ) :   0.8531 B(  4-C ,  7-O ) :  -0.2247 B(  5-C ,  7-O ) :   0.1088
B(  5-C , 23-H ) :   0.9633 B(  6-C ,  7-O ) :   2.0994 B(  6-C ,  8-C ) :   0.8662
B(  7-O ,  8-C ) :  -0.2172 B(  7-O ,  9-C ) :   0.1238 B(  8-C ,  9-C ) :   1.4100
B(  8-C , 13-C ) :   1.2802 B(  9-C , 10-C ) :   1.2403 B(  9-C , 24-H ) :   0.9675
B( 10-C , 11-C ) :   1.4166 B( 10-C , 25-H ) :   0.9655 B( 11-C , 12-C ) :   1.1387
B( 11-C , 26-H ) :   0.9212 B( 12-C , 13-C ) :   1.2243 B( 12-C , 14-C ) :  -0.1161
B( 12-C , 16-N ) :   1.2992 B( 13-C , 14-C ) :   0.9383 B( 13-C , 15-O ) :  -0.1348
B( 14-C , 15-O ) :   1.8912 B( 16-N , 17-C ) :   0.8535 B( 16-N , 27-H ) :   0.8305
B( 17-C , 18-C ) :   0.8344 B( 17-C , 28-H ) :   0.9751 B( 17-C , 29-H ) :   0.9700
B( 18-C , 19-O ) :   0.9770 B( 18-C , 30-H ) :   0.9816 B( 18-C , 31-H ) :   0.9771
B( 19-O , 32-H ) :   0.8930

Dispersion correction           -0.015752462
FINAL SINGLE POINT ENERGY      -897.781167127506

DIPOLE MOMENT
-------------

Method             : SCF
Type of density    : Electron Density
Multiplicity       :   1
Irrep              :   0
Energy             :  -897.7818456253417025 Eh
Relativity type    :
Basis              : AO
                                X                 Y                 Z
Electronic contribution:    -11.447869343       3.464420729      -0.532011089
Nuclear contribution   :     12.937678164      -4.309576657       0.123302513
                        -----------------------------------------
Total Dipole Moment    :      1.489808821      -0.845155928      -0.408708576
                        -----------------------------------------
Magnitude (a.u.)       :      1.760926337
Magnitude (Debye)      :      4.475919042

Rotational constants in cm-1:             0.023267             0.007346             0.005776
Rotational constants in MHz :           697.526401           220.236057           173.149998

                             ****ORCA TERMINATED NORMALLY****
TOTAL RUN TIME: 0 days 0 hours 2 minutes 0 seconds 679 msec
