                         Program Version 6.0.0  -   RELEASE  -
|  1> ! r2scan-3c def2/J RI DEFGRID2 scfconv6 printgap
|  2> %output
|  3>     printlevel normal
|  4> end
|  5> %cpcm
|  6>     smd true
|  7>     smdsolvent "water"
|  8> end
|  9> * xyz 0 1
| 10> C -4.6785767008 -0.9169329684 0.2322056312
| 11> C -4.020921123 -2.1326661244 0.1044878592
| 12> C -2.6460389505 -2.1646076603 -0.0357634011
| 13> C -1.9035537297 -0.9855194195 -0.050385168
| 14> C -2.568252031 0.2389272783 0.0793059918
| 15> C -3.9548860204 0.2602128844 0.2194248351
| 16> C -1.821350396 1.5029333858 0.0708175874
| 17> O -2.3931190016 2.5867066709 0.1796031041
| 18> C -0.3589276498 1.410123247 -0.072293582
| 19> C 0.3478007387 2.5999346927 -0.0539309443
| 20> C 1.7359354004 2.5973286345 -0.1666479654
| 21> C 2.4116176803 1.416632579 -0.3126682056
| 22> C 1.7321257655 0.1755247285 -0.3572559309
| 23> C 0.308763999 0.1701676457 -0.2191222971
| 24> C -0.4378621963 -1.0678325298 -0.207888291
| 25> O 0.0901485664 -2.1899076295 -0.3178267527
| 26> N 2.398016696 -0.9708116469 -0.5483968874
| 27> C 3.8241477342 -1.1508116042 -0.649080185
| 28> C 4.5409704014 -1.1449742566 0.721532924
| 29> O 4.9605288775 0.1357403392 1.1342720388
| 30> H -5.7512586237 -0.8889887879 0.3416552969
| 31> H -4.5810715064 -3.0545090657 0.1142836991
| 32> H -2.1161432827 -3.1001501635 -0.1372865114
| 33> H -4.4394023308 1.220486987 0.3174225781
| 34> H -0.2034068314 3.5208372927 0.059782717
| 35> H 2.2764211354 3.5301289317 -0.1335604795
| 36> H 3.4859018479 1.4245249894 -0.3669210062
| 37> H 1.8245810412 -1.810042542 -0.4877620848
| 38> H 4.2556343129 -0.3781706688 -1.2900553909
| 39> H 3.984840254 -2.1200441904 -1.1207384229
| 40> H 5.3934942091 -1.8307095371 0.6859837133
| 41> H 3.8473018297 -1.4945352325 1.4899672962
| 42> H 5.7574298195 0.3848607767 0.6461467845
| 43> *
| 44>
| 45>                          ****END OF INPUT****

CARTESIAN COORDINATES (ANGSTROEM)
---------------------------------
  C     -4.678577   -0.916933    0.232206
  C     -4.020921   -2.132666    0.104488
  C     -2.646039   -2.164608   -0.035763
  C     -1.903554   -0.985519   -0.050385
  C     -2.568252    0.238927    0.079306
  C     -3.954886    0.260213    0.219425
  C     -1.821350    1.502933    0.070818
  O     -2.393119    2.586707    0.179603
  C     -0.358928    1.410123   -0.072294
  C      0.347801    2.599935   -0.053931
  C      1.735935    2.597329   -0.166648
  C      2.411618    1.416633   -0.312668
  C      1.732126    0.175525   -0.357256
  C      0.308764    0.170168   -0.219122
  C     -0.437862   -1.067833   -0.207888
  O      0.090149   -2.189908   -0.317827
  N      2.398017   -0.970812   -0.548397
  C      3.824148   -1.150812   -0.649080
  C      4.540970   -1.144974    0.721533
  O      4.960529    0.135740    1.134272
  H     -5.751259   -0.888989    0.341655
  H     -4.581072   -3.054509    0.114284
  H     -2.116143   -3.100150   -0.137287
  H     -4.439402    1.220487    0.317423
  H     -0.203407    3.520837    0.059783
  H      2.276421    3.530129   -0.133560
  H      3.485902    1.424525   -0.366921
  H      1.824581   -1.810043   -0.487762
  H      4.255634   -0.378171   -1.290055
  H      3.984840   -2.120044   -1.120738
  H      5.393494   -1.830710    0.685984
  H      3.847302   -1.494535    1.489967
  H      5.757430    0.384861    0.646147

 Total Charge           Charge          ....    0
 Multiplicity           Mult            ....    1
 Number of Electrons    NEL             ....  140
 Basis Dimension        Dim             ....  465

ORBITAL ENERGIES
----------------

  NO   OCC          E(Eh)            E(eV)
   0   2.0000     -18.954065      -515.7663
   1   2.0000     -18.947997      -515.6012
   2   2.0000     -18.945497      -515.5332
   3   2.0000     -14.184170      -385.9709
   4   2.0000     -10.130893      -275.6756
   5   2.0000     -10.126398      -275.5533
   6   2.0000     -10.099905      -274.8324
   7   2.0000     -10.075243      -274.1613
   8   2.0000     -10.063635      -273.8454
   9   2.0000     -10.059646      -273.7369
  10   2.0000     -10.059083      -273.7216
  11   2.0000     -10.057721      -273.6845
  12   2.0000     -10.055355      -273.6201
  13   2.0000     -10.049524      -273.4614
  14   2.0000     -10.049372      -273.4573
  15   2.0000     -10.048977      -273.4466
  16   2.0000     -10.047912      -273.4176
  17   2.0000     -10.047632      -273.4100
  18   2.0000     -10.043958      -273.3100
  19   2.0000     -10.041652      -273.2472
  20   2.0000      -1.014854       -27.6156
  21   2.0000      -1.010340       -27.4928
  22   2.0000      -0.991083       -26.9688
  23   2.0000      -0.922145       -25.0928
  24   2.0000      -0.850682       -23.1482
  25   2.0000      -0.832070       -22.6418
  26   2.0000      -0.772458       -21.0196
  27   2.0000      -0.741288       -20.1715
  28   2.0000      -0.736388       -20.0381
  29   2.0000      -0.729536       -19.8517
  30   2.0000      -0.689800       -18.7704
  31   2.0000      -0.651176       -17.7194
  32   2.0000      -0.628359       -17.0985
  33   2.0000      -0.610371       -16.6090
  34   2.0000      -0.598955       -16.2984
  35   2.0000      -0.565586       -15.3904
  36   2.0000      -0.550912       -14.9911
  37   2.0000      -0.520297       -14.1580
  38   2.0000      -0.514534       -14.0012
  39   2.0000      -0.493012       -13.4156
  40   2.0000      -0.474819       -12.9205
  41   2.0000      -0.461993       -12.5715
  42   2.0000      -0.454178       -12.3588
  43   2.0000      -0.442652       -12.0452
  44   2.0000      -0.436047       -11.8654
  45   2.0000      -0.428826       -11.6689
  46   2.0000      -0.422503       -11.4969
  47   2.0000      -0.415759       -11.3134
  48   2.0000      -0.410881       -11.1806
  49   2.0000      -0.405843       -11.0435
  50   2.0000      -0.398692       -10.8490
  51   2.0000      -0.394304       -10.7296
  52   2.0000      -0.386235       -10.5100
  53   2.0000      -0.381091       -10.3700
  54   2.0000      -0.365712        -9.9515
  55   2.0000      -0.354790        -9.6543
  56   2.0000      -0.344780        -9.3820
  57   2.0000      -0.341028        -9.2799
  58   2.0000      -0.336555        -9.1581
  59   2.0000      -0.327838        -8.9209
  60   2.0000      -0.321619        -8.7517
  61   2.0000      -0.301405        -8.2016
  62   2.0000      -0.296463        -8.0672
  63   2.0000      -0.264136        -7.1875
  64   2.0000      -0.252345        -6.8667
  65   2.0000      -0.251143        -6.8339
  66   2.0000      -0.248911        -6.7732
  67   2.0000      -0.243450        -6.6246
  68   2.0000      -0.230103        -6.2614
  69   2.0000      -0.191732        -5.2173
  70   0.0000      -0.133006        -3.6193
  71   0.0000      -0.079779        -2.1709
  72   0.0000      -0.048168        -1.3107
  73   0.0000      -0.027415        -0.7460
  74   0.0000       0.024950         0.6789

MULLIKEN ATOMIC CHARGES
-----------------------
   0 C :   -0.170220
   1 C :   -0.159009
   2 C :   -0.244121
   3 C :    0.197017
   4 C :    0.139969
   5 C :   -0.228822
   6 C :    0.074911
   7 O :   -0.442300
   8 C :    0.187957
   9 C :   -0.258845
  10 C :   -0.205049
  11 C :   -0.274962
  12 C :    0.291710
  13 C :   -0.153630
  14 C :    0.032216
  15 O :   -0.503843
  16 N :   -0.033555
  17 C :   -0.341485
  18 C :   -0.140993
  19 O :   -0.484292
  20 H :    0.185086
  21 H :    0.185414
  22 H :    0.197060
  23 H :    0.195694
  24 H :    0.196529
  25 H :    0.183281
  26 H :    0.195521
  27 H :    0.339586
  28 H :    0.188352
  29 H :    0.182813
  30 H :    0.154283
  31 H :    0.158813
  32 H :    0.354914
Sum of atomic charges:    0.0000000

LOEWDIN ATOMIC CHARGES
----------------------
   0 C :   -0.140051
   1 C :   -0.132814
   2 C :   -0.109208
   3 C :   -0.027446
   4 C :   -0.042413
   5 C :   -0.102559
   6 C :    0.275725
   7 O :   -0.551512
   8 C :   -0.033324
   9 C :   -0.125926
  10 C :   -0.127182
  11 C :   -0.119588
  12 C :    0.202753
  13 C :   -0.041042
  14 C :    0.268993
  15 O :   -0.586466
  16 N :   -0.663053
  17 C :   -0.017022
  18 C :    0.032325
  19 O :   -0.639634
  20 H :    0.184138
  21 H :    0.184389
  22 H :    0.196515
  23 H :    0.194880
  24 H :    0.195499
  25 H :    0.185764
  26 H :    0.196509
  27 H :    0.297653
  28 H :    0.197199
  29 H :    0.201338
  30 H :    0.172539
  31 H :    0.187647
  32 H :    0.285372

  Mayer bond orders larger than 0.100000
B(  0-C ,  1-C ) :   1.3090 B(  0-C ,  5-C ) :   1.3542 B(  0-C , 20-H ) :   0.9605
B(  1-C ,  2-C ) :   1.3401 B(  1-C , 21-H ) :   0.9602 B(  2-C ,  3-C ) :   1.2982
B(  2-C , 15-O ) :   0.1005 B(  2-C , 22-H ) :   0.9725 B(  3-C ,  4-C ) :   1.5099
B(  3-C , 14-C ) :   0.9133 B(  3-C , 15-O ) :  -0.2031 B(  4-C ,  5-C ) :   1.2867
B(  4-C ,  6-C ) :   0.8635 B(  4-C ,  7-O ) :  -0.2244 B(  5-C ,  7-O ) :   0.1045
B(  5-C , 23-H ) :   0.9741 B(  6-C ,  7-O ) :   2.0599 B(  6-C ,  8-C ) :   0.8761
B(  7-O ,  8-C ) :  -0.2169 B(  7-O ,  9-C ) :   0.1222 B(  8-C ,  9-C ) :   1.3380
B(  8-C , 13-C ) :   1.2655 B(  9-C , 10-C ) :   1.2212 B(  9-C , 24-H ) :   0.9821
B( 10-C , 11-C ) :   1.4009 B( 10-C , 25-H ) :   0.9772 B( 11-C , 12-C ) :   1.0978
B( 11-C , 26-H ) :   0.9469 B( 12-C , 13-C ) :   1.1815 B( 12-C , 14-C ) :  -0.1074
B( 12-C , 16-N ) :   1.3270 B( 13-C , 14-C ) :   0.9587 B( 13-C , 15-O ) :  -0.1384
B( 14-C , 15-O ) :   1.8683 B( 16-N , 17-C ) :   0.8561 B( 16-N , 27-H ) :   0.8271
B( 17-C , 18-C ) :   0.8314 B( 17-C , 28-H ) :   0.9632 B( 17-C , 29-H ) :   0.9580
B( 18-C , 19-O ) :   0.9688 B( 18-C , 30-H ) :   0.9666 B( 18-C , 31-H ) :   0.9819
B( 19-O , 32-H ) :   0.8659

Dispersion correction           -0.015752462
FINAL SINGLE POINT ENERGY      -897.802097900184

DIPOLE MOMENT
-------------

Method             : SCF
Type of density    : Electron Density
Multiplicity       :   1
Irrep              :   0
Energy             :  -897.8027763980194322 Eh
Relativity type    :
Basis              : AO
                                X                 Y                 Z
Electronic contribution:    -10.702061194       3.050970840      -0.814539708
Nuclear contribution   :     12.937678164      -4.309576657       0.123302513
                        -----------------------------------------
Total Dipole Moment    :      2.235616970      -1.258605817      -0.691237195
                        -----------------------------------------
Magnitude (a.u.)       :      2.657043601
Magnitude (Debye)      :      6.753668111

Rotational constants in cm-1:             0.023267             0.007346             0.005776
Rotational constants in MHz :           697.526401           220.236057           173.149998

                             ****ORCA TERMINATED NORMALLY****
TOTAL RUN TIME: 0 days 0 hours 2 minutes 38 seconds 237 msec
