                         Program Version 6.0.0  -   RELEASE  -
|  1> ! r2scan-3c def2/J RI DEFGRID2 scfconv6 printgap
|  2> %output
|  3>     printlevel normal
|  4> end
|  5> * xyz 0 1
|  6> C -3.0104079816 -0.9047458 -0.2728903331
|  7> C -2.342196339 0.4425600523 -0.5195084075
|  8> C -1.2532276759 0.755419298 0.5119757309
|  9> C 0.0112600716 -0.0375649575 0.2992071008
| 10> O 0.0797121043 -1.1864782089 -0.081662458
| 11> O 1.0805801184 0.693622946 0.6041695207
| 12> C 2.3805929778 0.0966587521 0.4643223166
| 13> C 2.897898187 0.2384167792 -0.9591200995
| 14> H -2.2701083646 -1.6998995792 -0.2952071281
| 15> H -3.5021704018 -0.9149097078 0.6968954413
| 16> H -3.7543659975 -1.1026823872 -1.0399003057
| 17> H -3.0933038576 1.2324887354 -0.4747159449
| 18> H -1.9025221726 0.4516451403 -1.5186913532
| 19> H -1.6213822378 0.5158486558 1.5124349712
| 20> H -0.9844672596 1.8114705871 0.492678685
| 21> H 3.0091336133 0.6384019724 1.171541834
| 22> H 2.3127008775 -0.9586332125 0.7457248808
| 23> H 2.2596534095 -0.3160674841 -1.6435195702
| 24> H 2.9060134581 1.284950992 -1.2514444691
| 25> H 3.9058914812 -0.1588446682 -1.0174847551
| 26> *
| 27>
| 28>                          ****END OF INPUT****

CARTESIAN COORDINATES (ANGSTROEM)
---------------------------------
  C     -3.010408   -0.904746   -0.272890
  C     -2.342196    0.442560   -0.519508
  C     -1.253228    0.755419    0.511976
  C      0.011260   -0.037565    0.299207
  O      0.079712   -1.186478   -0.081662
  O      1.080580    0.693623    0.604170
  C      2.380593    0.096659    0.464322
  C      2.897898    0.238417   -0.959120
  H     -2.270108   -1.699900   -0.295207
  H     -3.502170   -0.914910    0.696895
  H     -3.754366   -1.102682   -1.039900
  H     -3.093304    1.232489   -0.474716
  H     -1.902522    0.451645   -1.518691
  H     -1.621382    0.515849    1.512435
  H     -0.984467    1.811471    0.492679
  H      3.009134    0.638402    1.171542
  H      2.312701   -0.958633    0.745725
  H      2.259653   -0.316067   -1.643520
  H      2.906013    1.284951   -1.251444
  H      3.905891   -0.158845   -1.017485

 Total Charge           Charge          ....    0
 Multiplicity           Mult            ....    1
 Number of Electrons    NEL             ....   64
 Basis Dimension        Dim             ....  222

ORBITAL ENERGIES
----------------

  NO   OCC          E(Eh)            E(eV)
   0   2.0000     -18.995716      -516.8997
   1   2.0000     -18.929442      -515.0963
   2   2.0000     -10.153066      -276.2790
   3   2.0000     -10.090587      -274.5788
   4   2.0000     -10.041641      -273.2469
   5   2.0000     -10.032477      -272.9976
   6   2.0000     -10.028428      -272.8874
   7   2.0000     -10.008450      -272.3438
   8   2.0000      -1.070950       -29.1420
   9   2.0000      -0.976791       -26.5798
  10   2.0000      -0.770309       -20.9612
  11   2.0000      -0.738718       -20.1015
  12   2.0000      -0.676105       -18.3978
  13   2.0000      -0.620692       -16.8899
  14   2.0000      -0.564872       -15.3710
  15   2.0000      -0.518812       -14.1176
  16   2.0000      -0.474736       -12.9182
  17   2.0000      -0.451119       -12.2756
  18   2.0000      -0.443382       -12.0650
  19   2.0000      -0.419831       -11.4242
  20   2.0000      -0.403036       -10.9672
  21   2.0000      -0.387834       -10.5535
  22   2.0000      -0.382292       -10.4027
  23   2.0000      -0.365560        -9.9474
  24   2.0000      -0.345120        -9.3912
  25   2.0000      -0.340126        -9.2553
  26   2.0000      -0.313730        -8.5370
  27   2.0000      -0.310726        -8.4553
  28   2.0000      -0.307252        -8.3608
  29   2.0000      -0.302342        -8.2271
  30   2.0000      -0.271940        -7.3999
  31   2.0000      -0.234223        -6.3735
  32   0.0000      -0.014995        -0.4080
  33   0.0000       0.077784         2.1166
  34   0.0000       0.089994         2.4489
  35   0.0000       0.109674         2.9844
  36   0.0000       0.122120         3.3230

MULLIKEN ATOMIC CHARGES
-----------------------
   0 C :   -0.520315
   1 C :   -0.200784
   2 C :   -0.276942
   3 C :    0.351009
   4 O :   -0.436812
   5 O :   -0.178653
   6 C :   -0.137221
   7 C :   -0.470392
   8 H :    0.191573
   9 H :    0.136493
  10 H :    0.141575
  11 H :    0.145865
  12 H :    0.136681
  13 H :    0.165437
  14 H :    0.167746
  15 H :    0.147900
  16 H :    0.166113
  17 H :    0.172677
  18 H :    0.151381
  19 H :    0.146669
Sum of atomic charges:   -0.0000000

LOEWDIN ATOMIC CHARGES
----------------------
   0 C :   -0.422336
   1 C :   -0.295228
   2 C :   -0.232319
   3 C :    0.364691
   4 O :   -0.443353
   5 O :   -0.599441
   6 C :    0.026566
   7 C :   -0.390466
   8 H :    0.172892
   9 H :    0.147126
  10 H :    0.149315
  11 H :    0.152924
  12 H :    0.159341
  13 H :    0.183128
  14 H :    0.180859
  15 H :    0.177560
  16 H :    0.187481
  17 H :    0.165325
  18 H :    0.156961
  19 H :    0.158971

  Mayer bond orders larger than 0.100000
B(  0-C ,  1-C ) :   0.9010 B(  0-C ,  8-H ) :   0.9736 B(  0-C ,  9-H ) :   0.9811
B(  0-C , 10-H ) :   0.9705 B(  1-C ,  2-C ) :   0.8834 B(  1-C , 11-H ) :   0.9710
B(  1-C , 12-H ) :   0.9765 B(  2-C ,  3-C ) :   0.9715 B(  2-C , 13-H ) :   0.9387
B(  2-C , 14-H ) :   0.9626 B(  3-C ,  4-O ) :   1.8428 B(  3-C ,  5-O ) :   1.0751
B(  5-O ,  6-C ) :   0.8201 B(  6-C ,  7-C ) :   0.9381 B(  6-C , 15-H ) :   0.9607
B(  6-C , 16-H ) :   0.9666 B(  7-C , 17-H ) :   0.9721 B(  7-C , 18-H ) :   0.9736
B(  7-C , 19-H ) :   0.9650

Dispersion correction           -0.005060148
FINAL SINGLE POINT ENERGY      -386.234842794203

DIPOLE MOMENT
-------------

Method             : SCF
Type of density    : Electron Density
Multiplicity       :   1
Irrep              :   0
Energy             :  -386.2416758766751173 Eh
Relativity type    :
Basis              : AO
                                X                 Y                 Z
Electronic contribution:      2.844124761      -0.089416064       2.590811831
Nuclear contribution   :     -2.548612852       0.727997876      -2.451832286
                        -----------------------------------------
Total Dipole Moment    :      0.295511909       0.638581812       0.138979545
                        -----------------------------------------
Magnitude (a.u.)       :      0.717237292
Magnitude (Debye)      :      1.823072314

Rotational constants in cm-1:             0.164939             0.032812             0.031093
Rotational constants in MHz :          4944.759407           983.684292           932.157792

                             ****ORCA TERMINATED NORMALLY****
TOTAL RUN TIME: 0 days 0 hours 0 minutes 30 seconds 388 msec
