                         Program Version 6.0.0  -   RELEASE  -
|  1> ! r2scan-3c def2/J RI DEFGRID2 scfconv6 printgap
|  2> %output
|  3>     printlevel normal
|  4> end
|  5> %cpcm
|  6>     smd true
|  7>     smdsolvent "water"
|  8> end
|  9> * xyz 0 1
| 10> C -3.0104079816 -0.9047458 -0.2728903331
| 11> C -2.342196339 0.4425600523 -0.5195084075
| 12> C -1.2532276759 0.755419298 0.5119757309
| 13> C 0.0112600716 -0.0375649575 0.2992071008
| 14> O 0.0797121043 -1.1864782089 -0.081662458
| 15> O 1.0805801184 0.693622946 0.6041695207
| 16> C 2.3805929778 0.0966587521 0.4643223166
| 17> C 2.897898187 0.2384167792 -0.9591200995
| 18> H -2.2701083646 -1.6998995792 -0.2952071281
| 19> H -3.5021704018 -0.9149097078 0.6968954413
| 20> H -3.7543659975 -1.1026823872 -1.0399003057
| 21> H -3.0933038576 1.2324887354 -0.4747159449
| 22> H -1.9025221726 0.4516451403 -1.5186913532
| 23> H -1.6213822378 0.5158486558 1.5124349712
| 24> H -0.9844672596 1.8114705871 0.492678685
| 25> H 3.0091336133 0.6384019724 1.171541834
| 26> H 2.3127008775 -0.9586332125 0.7457248808
| 27> H 2.2596534095 -0.3160674841 -1.6435195702
| 28> H 2.9060134581 1.284950992 -1.2514444691
| 29> H 3.9058914812 -0.1588446682 -1.0174847551
| 30> *
| 31>
| 32>                          ****END OF INPUT****

CARTESIAN COORDINATES (ANGSTROEM)
---------------------------------
  C     -3.010408   -0.904746   -0.272890
  C     -2.342196    0.442560   -0.519508
  C     -1.253228    0.755419    0.511976
  C      0.011260   -0.037565    0.299207
  O      0.079712   -1.186478   -0.081662
  O      1.080580    0.693623    0.604170
  C      2.380593    0.096659    0.464322
  C      2.897898    0.238417   -0.959120
  H     -2.270108   -1.699900   -0.295207
  H     -3.502170   -0.914910    0.696895
  H     -3.754366   -1.102682   -1.039900
  H     -3.093304    1.232489   -0.474716
  H     -1.902522    0.451645   -1.518691
  H     -1.621382    0.515849    1.512435
  H     -0.984467    1.811471    0.492679
  H      3.009134    0.638402    1.171542
  H      2.312701   -0.958633    0.745725
  H      2.259653   -0.316067   -1.643520
  H      2.906013    1.284951   -1.251444
  H      3.905891   -0.158845   -1.017485

 Total Charge           Charge          ....    0
 Multiplicity           Mult            ....    1
 Number of Electrons    NEL             ....   64
 Basis Dimension        Dim             ....  222

ORBITAL ENERGIES
----------------

  NO   OCC          E(Eh)            E(eV)
   0   2.0000     -19.000531      -517.0307
   1   2.0000     -18.942526      -515.4523
   2   2.0000     -10.161900      -276.5194
   3   2.0000     -10.082521      -274.3593
   4   2.0000     -10.035352      -273.0758
   5   2.0000     -10.026393      -272.8320
   6   2.0000     -10.017967      -272.6028
   7   2.0000     -10.007196      -272.3096
   8   2.0000      -1.077225       -29.3128
   9   2.0000      -0.988024       -26.8855
  10   2.0000      -0.766367       -20.8539
  11   2.0000      -0.732612       -19.9354
  12   2.0000      -0.672445       -18.2982
  13   2.0000      -0.616099       -16.7649
  14   2.0000      -0.560504       -15.2521
  15   2.0000      -0.516962       -14.0673
  16   2.0000      -0.473972       -12.8974
  17   2.0000      -0.456567       -12.4238
  18   2.0000      -0.445218       -12.1150
  19   2.0000      -0.419002       -11.4016
  20   2.0000      -0.400616       -10.9013
  21   2.0000      -0.384034       -10.4501
  22   2.0000      -0.378598       -10.3022
  23   2.0000      -0.358212        -9.7474
  24   2.0000      -0.345563        -9.4032
  25   2.0000      -0.337954        -9.1962
  26   2.0000      -0.309169        -8.4129
  27   2.0000      -0.309068        -8.4102
  28   2.0000      -0.303349        -8.2546
  29   2.0000      -0.299595        -8.1524
  30   2.0000      -0.277683        -7.5561
  31   2.0000      -0.246072        -6.6960
  32   0.0000      -0.021408        -0.5826
  33   0.0000       0.080653         2.1947
  34   0.0000       0.096750         2.6327
  35   0.0000       0.119479         3.2512
  36   0.0000       0.128327         3.4919

MULLIKEN ATOMIC CHARGES
-----------------------
   0 C :   -0.551535
   1 C :   -0.225080
   2 C :   -0.281495
   3 C :    0.380437
   4 O :   -0.510348
   5 O :   -0.199880
   6 C :   -0.142536
   7 C :   -0.495877
   8 H :    0.171305
   9 H :    0.156699
  10 H :    0.156370
  11 H :    0.163987
  12 H :    0.151636
  13 H :    0.196114
  14 H :    0.182972
  15 H :    0.173296
  16 H :    0.170377
  17 H :    0.168555
  18 H :    0.165182
  19 H :    0.169820
Sum of atomic charges:   -0.0000000

LOEWDIN ATOMIC CHARGES
----------------------
   0 C :   -0.429741
   1 C :   -0.295069
   2 C :   -0.228575
   3 C :    0.374549
   4 O :   -0.497054
   5 O :   -0.604437
   6 C :    0.030693
   7 C :   -0.393504
   8 H :    0.163028
   9 H :    0.153278
  10 H :    0.153066
  11 H :    0.160399
  12 H :    0.161738
  13 H :    0.194441
  14 H :    0.188217
  15 H :    0.188573
  16 H :    0.188765
  17 H :    0.162405
  18 H :    0.161784
  19 H :    0.167444

  Mayer bond orders larger than 0.100000
B(  0-C ,  1-C ) :   0.8911 B(  0-C ,  8-H ) :   0.9787 B(  0-C ,  9-H ) :   0.9776
B(  0-C , 10-H ) :   0.9683 B(  1-C ,  2-C ) :   0.8625 B(  1-C , 11-H ) :   0.9658
B(  1-C , 12-H ) :   0.9814 B(  2-C ,  3-C ) :   0.9753 B(  2-C , 13-H ) :   0.9289
B(  2-C , 14-H ) :   0.9542 B(  3-C ,  4-O ) :   1.7885 B(  3-C ,  5-O ) :   1.0910
B(  5-O ,  6-C ) :   0.8023 B(  6-C ,  7-C ) :   0.9369 B(  6-C , 15-H ) :   0.9514
B(  6-C , 16-H ) :   0.9626 B(  7-C , 17-H ) :   0.9700 B(  7-C , 18-H ) :   0.9697
B(  7-C , 19-H ) :   0.9601

Dispersion correction           -0.005060148
FINAL SINGLE POINT ENERGY      -386.238630185885

DIPOLE MOMENT
-------------

Method             : SCF
Type of density    : Electron Density
Multiplicity       :   1
Irrep              :   0
Energy             :  -386.2454632683566729 Eh
Relativity type    :
Basis              : AO
                                X                 Y                 Z
Electronic contribution:      2.889424445       0.257394673       2.710983559
Nuclear contribution   :     -2.548612852       0.727997876      -2.451832286
                        -----------------------------------------
Total Dipole Moment    :      0.340811593       0.985392550       0.259151273
                        -----------------------------------------
Magnitude (a.u.)       :      1.074388385
Magnitude (Debye)      :      2.730878247

Rotational constants in cm-1:             0.164939             0.032812             0.031093
Rotational constants in MHz :          4944.759407           983.684292           932.157792

                             ****ORCA TERMINATED NORMALLY****
TOTAL RUN TIME: 0 days 0 hours 0 minutes 36 seconds 812 msec
