                         Program Version 6.0.0  -   RELEASE  -
|  1> ! pbe def2-sv(p) def2/J RI DEFGRID1 loosescf d4 GCP(DFT/SV(P)) printgap
|  2> %output
|  3>     printlevel normal
|  4> end
|  5> * xyz 0 1
|  6> C -2.4749988548 -0.7792144969 1.0278692128
|  7> C -2.0634627007 -0.7722597125 -0.4393316316
|  8> C -1.4099267371 0.5564412866 -0.8389196182
|  9> C -0.1141262902 0.7730089098 -0.1009831374
| 10> O 0.1116399461 1.6989554743 0.6526482255
| 11> O 0.7743915388 -0.1718711181 -0.3710875133
| 12> C 2.0570933221 -0.0884642603 0.2705183968
| 13> C 2.945131766 -1.176008906 -0.3020536586
| 14> H -2.9289133798 -1.7308591957 1.2909438603
| 15> H -1.6109916571 -0.6193128926 1.6705531779
| 16> H -3.1922958711 0.0135896415 1.2268546262
| 17> H -2.9435095451 -0.9272296139 -1.0642400557
| 18> H -1.3598670051 -1.583330826 -0.6308747479
| 19> H -2.0709804117 1.393488317 -0.6145633542
| 20> H -1.1872635481 0.5437492992 -1.9064342221
| 21> H 2.4685233762 0.9108343026 0.0931718552
| 22> H 1.9124493518 -0.2091413759 1.3493472899
| 23> H 3.9207930742 -1.1281261994 0.1700418892
| 24> H 2.5049022699 -2.1513836288 -0.1179045703
| 25> H 3.0576117056 -1.0388338611 -1.3734195288
| 26> *
| 27>
| 28>                          ****END OF INPUT****

CARTESIAN COORDINATES (ANGSTROEM)
---------------------------------
  C     -2.474999   -0.779214    1.027869
  C     -2.063463   -0.772260   -0.439332
  C     -1.409927    0.556441   -0.838920
  C     -0.114126    0.773009   -0.100983
  O      0.111640    1.698955    0.652648
  O      0.774392   -0.171871   -0.371088
  C      2.057093   -0.088464    0.270518
  C      2.945132   -1.176009   -0.302054
  H     -2.928913   -1.730859    1.290944
  H     -1.610992   -0.619313    1.670553
  H     -3.192296    0.013590    1.226855
  H     -2.943510   -0.927230   -1.064240
  H     -1.359867   -1.583331   -0.630875
  H     -2.070980    1.393488   -0.614563
  H     -1.187264    0.543749   -1.906434
  H      2.468523    0.910834    0.093172
  H      1.912449   -0.209141    1.349347
  H      3.920793   -1.128126    0.170042
  H      2.504902   -2.151384   -0.117905
  H      3.057612   -1.038834   -1.373420

 Total Charge           Charge          ....    0
 Multiplicity           Mult            ....    1
 Number of Electrons    NEL             ....   64
 Basis Dimension        Dim             ....  136

ORBITAL ENERGIES
----------------

  NO   OCC          E(Eh)            E(eV)
   0   2.0000     -18.797585      -511.5083
   1   2.0000     -18.728748      -509.6351
   2   2.0000     -10.002981      -272.1950
   3   2.0000      -9.947473      -270.6845
   4   2.0000      -9.896052      -269.2853
   5   2.0000      -9.893604      -269.2186
   6   2.0000      -9.889923      -269.1185
   7   2.0000      -9.877667      -268.7850
   8   2.0000      -1.004736       -27.3403
   9   2.0000      -0.905342       -24.6356
  10   2.0000      -0.730780       -19.8855
  11   2.0000      -0.698596       -19.0098
  12   2.0000      -0.636529       -17.3208
  13   2.0000      -0.581631       -15.8270
  14   2.0000      -0.535615       -14.5748
  15   2.0000      -0.507520       -13.8103
  16   2.0000      -0.452221       -12.3056
  17   2.0000      -0.434563       -11.8251
  18   2.0000      -0.415968       -11.3191
  19   2.0000      -0.401692       -10.9306
  20   2.0000      -0.391874       -10.6634
  21   2.0000      -0.364178        -9.9098
  22   2.0000      -0.362367        -9.8605
  23   2.0000      -0.354373        -9.6430
  24   2.0000      -0.342296        -9.3143
  25   2.0000      -0.322020        -8.7626
  26   2.0000      -0.313833        -8.5398
  27   2.0000      -0.299546        -8.1511
  28   2.0000      -0.296980        -8.0812
  29   2.0000      -0.294528        -8.0145
  30   2.0000      -0.255663        -6.9569
  31   2.0000      -0.211422        -5.7531
  32   0.0000      -0.018711        -0.5091
  33   0.0000       0.034379         0.9355
  34   0.0000       0.051959         1.4139
  35   0.0000       0.071567         1.9474
  36   0.0000       0.079077         2.1518

MULLIKEN ATOMIC CHARGES
-----------------------
   0 C :   -0.286972
   1 C :   -0.215139
   2 C :   -0.100908
   3 C :    0.082249
   4 O :   -0.209072
   5 O :   -0.244538
   6 C :   -0.028433
   7 C :   -0.272136
   8 H :    0.106067
   9 H :    0.118078
  10 H :    0.103477
  11 H :    0.093765
  12 H :    0.102430
  13 H :    0.096884
  14 H :    0.106015
  15 H :    0.106401
  16 H :    0.102626
  17 H :    0.111002
  18 H :    0.113867
  19 H :    0.114337
Sum of atomic charges:   -0.0000000

LOEWDIN ATOMIC CHARGES
----------------------
   0 C :   -0.342174
   1 C :   -0.230225
   2 C :   -0.242604
   3 C :    0.031384
   4 O :   -0.168800
   5 O :   -0.071362
   6 C :   -0.108201
   7 C :   -0.350774
   8 H :    0.120688
   9 H :    0.120565
  10 H :    0.120568
  11 H :    0.118499
  12 H :    0.119291
  13 H :    0.132014
  14 H :    0.137235
  15 H :    0.116500
  16 H :    0.114935
  17 H :    0.130237
  18 H :    0.125865
  19 H :    0.126360

  Mayer bond orders larger than 0.100000
B(  0-C ,  1-C ) :   1.1523 B(  0-C ,  8-H ) :   0.9515 B(  0-C ,  9-H ) :   0.9483
B(  0-C , 10-H ) :   0.9535 B(  1-C ,  2-C ) :   1.1093 B(  1-C , 11-H ) :   0.9270
B(  1-C , 12-H ) :   0.9239 B(  2-C ,  3-C ) :   1.0385 B(  2-C , 13-H ) :   0.9104
B(  2-C , 14-H ) :   0.8941 B(  3-C ,  4-O ) :   2.0578 B(  3-C ,  5-O ) :   1.1894
B(  5-O ,  6-C ) :   0.9148 B(  6-C ,  7-C ) :   1.1489 B(  6-C , 15-H ) :   0.9297
B(  6-C , 16-H ) :   0.9332 B(  7-C , 17-H ) :   0.9445 B(  7-C , 18-H ) :   0.9495
B(  7-C , 19-H ) :   0.9505

Dispersion correction           -0.015034967
FINAL SINGLE POINT ENERGY      -385.457545006440

DIPOLE MOMENT
-------------

Method             : SCF
Type of density    : Electron Density
Multiplicity       :   1
Irrep              :   0
Energy             :  -385.5324575067373303 Eh
Relativity type    :
Basis              : AO
                                X                 Y                 Z
Electronic contribution:      1.518863080       5.380483690      -0.446266209
Nuclear contribution   :     -1.328010139      -6.100353667       0.091871306
                        -----------------------------------------
Total Dipole Moment    :      0.190852941      -0.719869977      -0.354394903
                        -----------------------------------------
Magnitude (a.u.)       :      0.824762618
Magnitude (Debye)      :      2.096379973

Rotational constants in cm-1:             0.109446             0.038128             0.033707
Rotational constants in MHz :          3281.099499          1143.036234          1010.506560

                             ****ORCA TERMINATED NORMALLY****
TOTAL RUN TIME: 0 days 0 hours 0 minutes 10 seconds 658 msec
