                         Program Version 6.0.0  -   RELEASE  -
|  1> ! r2scan-3c def2/J RI DEFGRID2 scfconv6 printgap
|  2> %output
|  3>     printlevel normal
|  4> end
|  5> * xyz 0 1
|  6> C 1.4595096893 -0.4765116534 -1.4305829738
|  7> C 1.5236747604 -0.176781806 0.0561070623
|  8> C 1.9517521491 1.2523860585 0.3519276648
|  9> S -0.0060807896 -0.6532226486 0.9807648065
| 10> C -1.5251171681 0.0247397714 0.1713298133
| 11> C -1.4508254821 1.512040798 -0.1229541551
| 12> C -1.9465072357 -0.7956823273 -1.0380788124
| 13> H 0.8216875304 0.2375464461 -1.9455574308
| 14> H 2.4597867037 -0.4032764644 -1.8532975028
| 15> H 1.0837519371 -1.4820319306 -1.6032462029
| 16> H 2.234150865 -0.8629430301 0.5295261224
| 17> H 2.9762582461 1.3986343948 0.0152977928
| 18> H 1.9068755777 1.4452023122 1.4211272251
| 19> H 1.3171137513 1.970128968 -0.1592936753
| 20> H -2.2437487168 -0.1448755072 0.9803401928
| 21> H -1.0809779811 2.0562836195 0.742554176
| 22> H -0.8035649355 1.7097528867 -0.973760158
| 23> H -2.447032803 1.8788932 -0.3630021179
| 24> H -1.9061312068 -1.8571515413 -0.8056770651
| 25> H -1.3051619469 -0.6005462124 -1.8923934531
| 26> H -2.9683873112 -0.5383089544 -1.3097705168
| 27> *
| 28>
| 29>                          ****END OF INPUT****

CARTESIAN COORDINATES (ANGSTROEM)
---------------------------------
  C      1.459510   -0.476512   -1.430583
  C      1.523675   -0.176782    0.056107
  C      1.951752    1.252386    0.351928
  S     -0.006081   -0.653223    0.980765
  C     -1.525117    0.024740    0.171330
  C     -1.450825    1.512041   -0.122954
  C     -1.946507   -0.795682   -1.038079
  H      0.821688    0.237546   -1.945557
  H      2.459787   -0.403276   -1.853298
  H      1.083752   -1.482032   -1.603246
  H      2.234151   -0.862943    0.529526
  H      2.976258    1.398634    0.015298
  H      1.906876    1.445202    1.421127
  H      1.317114    1.970129   -0.159294
  H     -2.243749   -0.144876    0.980340
  H     -1.080978    2.056284    0.742554
  H     -0.803565    1.709753   -0.973760
  H     -2.447033    1.878893   -0.363002
  H     -1.906131   -1.857152   -0.805677
  H     -1.305162   -0.600546   -1.892393
  H     -2.968387   -0.538309   -1.309771

 Total Charge           Charge          ....    0
 Multiplicity           Mult            ....    1
 Number of Electrons    NEL             ....   66
 Basis Dimension        Dim             ....  211

ORBITAL ENERGIES
----------------

  NO   OCC          E(Eh)            E(eV)
   0   2.0000     -88.532251     -2409.0850
   1   2.0000     -10.067477      -273.9500
   2   2.0000     -10.067466      -273.9497
   3   2.0000     -10.025618      -272.8109
   4   2.0000     -10.025614      -272.8108
   5   2.0000     -10.020662      -272.6761
   6   2.0000     -10.020648      -272.6757
   7   2.0000      -7.826410      -212.9675
   8   2.0000      -5.774245      -157.1252
   9   2.0000      -5.769908      -157.0072
  10   2.0000      -5.762942      -156.8176
  11   2.0000      -0.790846       -21.5200
  12   2.0000      -0.759078       -20.6556
  13   2.0000      -0.662522       -18.0281
  14   2.0000      -0.656619       -17.8675
  15   2.0000      -0.650504       -17.7011
  16   2.0000      -0.562829       -15.3154
  17   2.0000      -0.512917       -13.9572
  18   2.0000      -0.438366       -11.9286
  19   2.0000      -0.421708       -11.4753
  20   2.0000      -0.413298       -11.2464
  21   2.0000      -0.391905       -10.6643
  22   2.0000      -0.390719       -10.6320
  23   2.0000      -0.378698       -10.3049
  24   2.0000      -0.369271       -10.0484
  25   2.0000      -0.351817        -9.5734
  26   2.0000      -0.331792        -9.0285
  27   2.0000      -0.330137        -8.9835
  28   2.0000      -0.321087        -8.7372
  29   2.0000      -0.316955        -8.6248
  30   2.0000      -0.280766        -7.6400
  31   2.0000      -0.254180        -6.9166
  32   2.0000      -0.185748        -5.0544
  33   0.0000       0.032086         0.8731
  34   0.0000       0.038220         1.0400
  35   0.0000       0.082265         2.2385
  36   0.0000       0.109995         2.9931
  37   0.0000       0.110831         3.0159

MULLIKEN ATOMIC CHARGES
-----------------------
   0 C :   -0.515888
   1 C :   -0.031741
   2 C :   -0.446570
   3 S :   -0.150677
   4 C :   -0.031156
   5 C :   -0.515757
   6 C :   -0.446927
   7 H :    0.147594
   8 H :    0.143631
   9 H :    0.170092
  10 H :    0.156465
  11 H :    0.139546
  12 H :    0.165858
  13 H :    0.146212
  14 H :    0.156431
  15 H :    0.170068
  16 H :    0.147499
  17 H :    0.143591
  18 H :    0.165977
  19 H :    0.146159
  20 H :    0.139593
Sum of atomic charges:   -0.0000000

LOEWDIN ATOMIC CHARGES
----------------------
   0 C :   -0.418164
   1 C :   -0.294931
   2 C :   -0.421193
   3 S :    0.049676
   4 C :   -0.294889
   5 C :   -0.418187
   6 C :   -0.421216
   7 H :    0.150772
   8 H :    0.154763
   9 H :    0.161780
  10 H :    0.173771
  11 H :    0.151716
  12 H :    0.161910
  13 H :    0.154734
  14 H :    0.173783
  15 H :    0.161774
  16 H :    0.150749
  17 H :    0.154762
  18 H :    0.161935
  19 H :    0.154719
  20 H :    0.151735

  Mayer bond orders larger than 0.100000
B(  0-C ,  1-C ) :   0.8893 B(  0-C ,  7-H ) :   0.9862 B(  0-C ,  8-H ) :   0.9563
B(  0-C ,  9-H ) :   0.9666 B(  1-C ,  2-C ) :   0.8979 B(  1-C ,  3-S ) :   0.9522
B(  1-C , 10-H ) :   0.9382 B(  2-C , 11-H ) :   0.9628 B(  2-C , 12-H ) :   0.9731
B(  2-C , 13-H ) :   0.9720 B(  3-S ,  4-C ) :   0.9524 B(  4-C ,  5-C ) :   0.8894
B(  4-C ,  6-C ) :   0.8975 B(  4-C , 14-H ) :   0.9382 B(  5-C , 15-H ) :   0.9666
B(  5-C , 16-H ) :   0.9862 B(  5-C , 17-H ) :   0.9563 B(  6-C , 18-H ) :   0.9732
B(  6-C , 19-H ) :   0.9720 B(  6-C , 20-H ) :   0.9628

Dispersion correction           -0.006578857
FINAL SINGLE POINT ENERGY      -635.151904434479

DIPOLE MOMENT
-------------

Method             : SCF
Type of density    : Electron Density
Multiplicity       :   1
Irrep              :   0
Energy             :  -635.1586594161966559 Eh
Relativity type    :
Basis              : AO
                                X                 Y                 Z
Electronic contribution:     -0.038692794      -4.154793247       6.237014469
Nuclear contribution   :      0.042036699       4.528960197      -6.799274799
                        -----------------------------------------
Total Dipole Moment    :      0.003343905       0.374166950      -0.562260330
                        -----------------------------------------
Magnitude (a.u.)       :      0.675387865
Magnitude (Debye)      :      1.716699524

Rotational constants in cm-1:             0.090479             0.049475             0.047621
Rotational constants in MHz :          2712.486645          1483.220470          1427.637086

                             ****ORCA TERMINATED NORMALLY****
TOTAL RUN TIME: 0 days 0 hours 0 minutes 25 seconds 644 msec
