                         Program Version 6.0.0  -   RELEASE  -
|  1> ! r2scan-3c def2/J RI DEFGRID2 scfconv6 printgap
|  2> %output
|  3>     printlevel normal
|  4> end
|  5> %cpcm
|  6>     smd true
|  7>     smdsolvent "water"
|  8> end
|  9> * xyz 0 1
| 10> C 1.4595096893 -0.4765116534 -1.4305829738
| 11> C 1.5236747604 -0.176781806 0.0561070623
| 12> C 1.9517521491 1.2523860585 0.3519276648
| 13> S -0.0060807896 -0.6532226486 0.9807648065
| 14> C -1.5251171681 0.0247397714 0.1713298133
| 15> C -1.4508254821 1.512040798 -0.1229541551
| 16> C -1.9465072357 -0.7956823273 -1.0380788124
| 17> H 0.8216875304 0.2375464461 -1.9455574308
| 18> H 2.4597867037 -0.4032764644 -1.8532975028
| 19> H 1.0837519371 -1.4820319306 -1.6032462029
| 20> H 2.234150865 -0.8629430301 0.5295261224
| 21> H 2.9762582461 1.3986343948 0.0152977928
| 22> H 1.9068755777 1.4452023122 1.4211272251
| 23> H 1.3171137513 1.970128968 -0.1592936753
| 24> H -2.2437487168 -0.1448755072 0.9803401928
| 25> H -1.0809779811 2.0562836195 0.742554176
| 26> H -0.8035649355 1.7097528867 -0.973760158
| 27> H -2.447032803 1.8788932 -0.3630021179
| 28> H -1.9061312068 -1.8571515413 -0.8056770651
| 29> H -1.3051619469 -0.6005462124 -1.8923934531
| 30> H -2.9683873112 -0.5383089544 -1.3097705168
| 31> *
| 32>
| 33>                          ****END OF INPUT****

CARTESIAN COORDINATES (ANGSTROEM)
---------------------------------
  C      1.459510   -0.476512   -1.430583
  C      1.523675   -0.176782    0.056107
  C      1.951752    1.252386    0.351928
  S     -0.006081   -0.653223    0.980765
  C     -1.525117    0.024740    0.171330
  C     -1.450825    1.512041   -0.122954
  C     -1.946507   -0.795682   -1.038079
  H      0.821688    0.237546   -1.945557
  H      2.459787   -0.403276   -1.853298
  H      1.083752   -1.482032   -1.603246
  H      2.234151   -0.862943    0.529526
  H      2.976258    1.398634    0.015298
  H      1.906876    1.445202    1.421127
  H      1.317114    1.970129   -0.159294
  H     -2.243749   -0.144876    0.980340
  H     -1.080978    2.056284    0.742554
  H     -0.803565    1.709753   -0.973760
  H     -2.447033    1.878893   -0.363002
  H     -1.906131   -1.857152   -0.805677
  H     -1.305162   -0.600546   -1.892393
  H     -2.968387   -0.538309   -1.309771

 Total Charge           Charge          ....    0
 Multiplicity           Mult            ....    1
 Number of Electrons    NEL             ....   66
 Basis Dimension        Dim             ....  211

ORBITAL ENERGIES
----------------

  NO   OCC          E(Eh)            E(eV)
   0   2.0000     -88.531617     -2409.0678
   1   2.0000     -10.059285      -273.7271
   2   2.0000     -10.059238      -273.7258
   3   2.0000     -10.013014      -272.4680
   4   2.0000     -10.012974      -272.4669
   5   2.0000     -10.010771      -272.4069
   6   2.0000     -10.010734      -272.4059
   7   2.0000      -7.825835      -212.9518
   8   2.0000      -5.773442      -157.1034
   9   2.0000      -5.769254      -156.9894
  10   2.0000      -5.762744      -156.8122
  11   2.0000      -0.782928       -21.3046
  12   2.0000      -0.749232       -20.3876
  13   2.0000      -0.652027       -17.7426
  14   2.0000      -0.646977       -17.6051
  15   2.0000      -0.643779       -17.5181
  16   2.0000      -0.553630       -15.0650
  17   2.0000      -0.503422       -13.6988
  18   2.0000      -0.428563       -11.6618
  19   2.0000      -0.412133       -11.2147
  20   2.0000      -0.403013       -10.9665
  21   2.0000      -0.382316       -10.4034
  22   2.0000      -0.381068       -10.3694
  23   2.0000      -0.368772       -10.0348
  24   2.0000      -0.356815        -9.7094
  25   2.0000      -0.339226        -9.2308
  26   2.0000      -0.321007        -8.7350
  27   2.0000      -0.320720        -8.7272
  28   2.0000      -0.311693        -8.4816
  29   2.0000      -0.307284        -8.3616
  30   2.0000      -0.270946        -7.3728
  31   2.0000      -0.252218        -6.8632
  32   2.0000      -0.186479        -5.0744
  33   0.0000       0.038142         1.0379
  34   0.0000       0.039793         1.0828
  35   0.0000       0.091069         2.4781
  36   0.0000       0.122184         3.3248
  37   0.0000       0.124487         3.3875

MULLIKEN ATOMIC CHARGES
-----------------------
   0 C :   -0.546483
   1 C :   -0.002621
   2 C :   -0.494915
   3 S :   -0.230974
   4 C :   -0.002178
   5 C :   -0.546317
   6 C :   -0.495223
   7 H :    0.173159
   8 H :    0.159349
   9 H :    0.168082
  10 H :    0.171071
  11 H :    0.156736
  12 H :    0.165411
  13 H :    0.165650
  14 H :    0.170946
  15 H :    0.168027
  16 H :    0.173068
  17 H :    0.159282
  18 H :    0.165442
  19 H :    0.165777
  20 H :    0.156710
Sum of atomic charges:   -0.0000000

LOEWDIN ATOMIC CHARGES
----------------------
   0 C :   -0.422039
   1 C :   -0.288792
   2 C :   -0.427168
   3 S :    0.006964
   4 C :   -0.288798
   5 C :   -0.422047
   6 C :   -0.427202
   7 H :    0.159051
   8 H :    0.159846
   9 H :    0.160577
  10 H :    0.178119
  11 H :    0.157568
  12 H :    0.159499
  13 H :    0.159909
  14 H :    0.178078
  15 H :    0.160562
  16 H :    0.159017
  17 H :    0.159847
  18 H :    0.159503
  19 H :    0.159955
  20 H :    0.157553

  Mayer bond orders larger than 0.100000
B(  0-C ,  1-C ) :   0.8882 B(  0-C ,  7-H ) :   0.9800 B(  0-C ,  8-H ) :   0.9548
B(  0-C ,  9-H ) :   0.9641 B(  1-C ,  2-C ) :   0.8885 B(  1-C ,  3-S ) :   0.9333
B(  1-C , 10-H ) :   0.9355 B(  2-C , 11-H ) :   0.9602 B(  2-C , 12-H ) :   0.9743
B(  2-C , 13-H ) :   0.9707 B(  3-S ,  4-C ) :   0.9337 B(  4-C ,  5-C ) :   0.8883
B(  4-C ,  6-C ) :   0.8882 B(  4-C , 14-H ) :   0.9355 B(  5-C , 15-H ) :   0.9641
B(  5-C , 16-H ) :   0.9801 B(  5-C , 17-H ) :   0.9547 B(  6-C , 18-H ) :   0.9743
B(  6-C , 19-H ) :   0.9708 B(  6-C , 20-H ) :   0.9601

Dispersion correction           -0.006578857
FINAL SINGLE POINT ENERGY      -635.153359081917

DIPOLE MOMENT
-------------

Method             : SCF
Type of density    : Electron Density
Multiplicity       :   1
Irrep              :   0
Energy             :  -635.1601140636340688 Eh
Relativity type    :
Basis              : AO
                                X                 Y                 Z
Electronic contribution:     -0.036198148      -3.970378896       5.960015988
Nuclear contribution   :      0.042036699       4.528960197      -6.799274799
                        -----------------------------------------
Total Dipole Moment    :      0.005838551       0.558581301      -0.839258812
                        -----------------------------------------
Magnitude (a.u.)       :      1.008167899
Magnitude (Debye)      :      2.562559148

Rotational constants in cm-1:             0.090479             0.049475             0.047621
Rotational constants in MHz :          2712.486645          1483.220470          1427.637086

                             ****ORCA TERMINATED NORMALLY****
TOTAL RUN TIME: 0 days 0 hours 0 minutes 30 seconds 594 msec
