                         Program Version 6.0.0  -   RELEASE  -
|  1> ! pbe def2-sv(p) def2/J RI DEFGRID1 loosescf d4 GCP(DFT/SV(P)) printgap
|  2> %output
|  3>     printlevel normal
|  4> end
|  5> * xyz 0 1
|  6> C -3.6271320127 -0.7265685672 0.2710758172
|  7> C -2.3208609405 -0.3517972211 -0.4163370316
|  8> C -1.2187817007 -0.0500528343 0.6024047138
|  9> C 0.0286623917 0.4539856426 -0.0741494028
| 10> O 0.0537824579 1.2790154608 -0.9648301786
| 11> O 1.1193951398 -0.1135612262 0.4209562734
| 12> C 2.3939531626 0.2731574497 -0.122840907
| 13> C 3.4236715105 -0.756297489 0.3012436789
| 14> H -3.9808752849 0.0928356452 0.89154363
| 15> H -4.3893351615 -0.9516235413 -0.4696018348
| 16> H -3.4880432438 -1.6018466016 0.9003783942
| 17> H -2.464476573 0.5293089937 -1.0446402569
| 18> H -1.9972371393 -1.1698425624 -1.0628638029
| 19> H -0.9663894315 -0.9310253513 1.1913723408
| 20> H -1.5619758747 0.7371635767 1.2779431033
| 21> H 2.3005449238 0.3362566733 -1.2119355187
| 22> H 2.6391622897 1.2691828218 0.2593877826
| 23> H 3.474309705 -0.8052515767 1.3847324347
| 24> H 3.1523161385 -1.7358080186 -0.0813625318
| 25> H 4.3950453664 -0.4751333173 -0.0915879597
| 26> *
| 27>
| 28>                          ****END OF INPUT****

CARTESIAN COORDINATES (ANGSTROEM)
---------------------------------
  C     -3.627132   -0.726569    0.271076
  C     -2.320861   -0.351797   -0.416337
  C     -1.218782   -0.050053    0.602405
  C      0.028662    0.453986   -0.074149
  O      0.053782    1.279015   -0.964830
  O      1.119395   -0.113561    0.420956
  C      2.393953    0.273157   -0.122841
  C      3.423672   -0.756297    0.301244
  H     -3.980875    0.092836    0.891544
  H     -4.389335   -0.951624   -0.469602
  H     -3.488043   -1.601847    0.900378
  H     -2.464477    0.529309   -1.044640
  H     -1.997237   -1.169843   -1.062864
  H     -0.966389   -0.931025    1.191372
  H     -1.561976    0.737164    1.277943
  H      2.300545    0.336257   -1.211936
  H      2.639162    1.269183    0.259388
  H      3.474310   -0.805252    1.384732
  H      3.152316   -1.735808   -0.081363
  H      4.395045   -0.475133   -0.091588

 Total Charge           Charge          ....    0
 Multiplicity           Mult            ....    1
 Number of Electrons    NEL             ....   64
 Basis Dimension        Dim             ....  136

ORBITAL ENERGIES
----------------

  NO   OCC          E(Eh)            E(eV)
   0   2.0000     -18.796954      -511.4911
   1   2.0000     -18.729531      -509.6565
   2   2.0000     -10.003083      -272.1977
   3   2.0000      -9.946108      -270.6474
   4   2.0000      -9.896028      -269.2846
   5   2.0000      -9.889368      -269.1034
   6   2.0000      -9.889165      -269.0979
   7   2.0000      -9.877491      -268.7802
   8   2.0000      -1.003415       -27.3043
   9   2.0000      -0.906345       -24.6629
  10   2.0000      -0.726137       -19.7592
  11   2.0000      -0.700489       -19.0613
  12   2.0000      -0.638954       -17.3868
  13   2.0000      -0.580825       -15.8051
  14   2.0000      -0.530133       -14.4256
  15   2.0000      -0.504048       -13.7158
  16   2.0000      -0.446541       -12.1510
  17   2.0000      -0.440740       -11.9931
  18   2.0000      -0.424978       -11.5642
  19   2.0000      -0.400140       -10.8883
  20   2.0000      -0.385796       -10.4980
  21   2.0000      -0.366344        -9.9687
  22   2.0000      -0.360099        -9.7988
  23   2.0000      -0.353904        -9.6302
  24   2.0000      -0.343119        -9.3367
  25   2.0000      -0.316433        -8.6106
  26   2.0000      -0.316232        -8.6051
  27   2.0000      -0.300255        -8.1703
  28   2.0000      -0.292119        -7.9489
  29   2.0000      -0.290084        -7.8936
  30   2.0000      -0.255303        -6.9472
  31   2.0000      -0.215447        -5.8626
  32   0.0000      -0.017692        -0.4814
  33   0.0000       0.039155         1.0655
  34   0.0000       0.048824         1.3286
  35   0.0000       0.076878         2.0919
  36   0.0000       0.082496         2.2448

MULLIKEN ATOMIC CHARGES
-----------------------
   0 C :   -0.251587
   1 C :   -0.221131
   2 C :   -0.148359
   3 C :    0.117598
   4 O :   -0.214308
   5 O :   -0.236563
   6 C :   -0.029507
   7 C :   -0.273822
   8 H :    0.098146
   9 H :    0.106106
  10 H :    0.096701
  11 H :    0.109958
  12 H :    0.092529
  13 H :    0.093859
  14 H :    0.109404
  15 H :    0.109431
  16 H :    0.102731
  17 H :    0.114024
  18 H :    0.113968
  19 H :    0.110820
Sum of atomic charges:   -0.0000000

LOEWDIN ATOMIC CHARGES
----------------------
   0 C :   -0.339678
   1 C :   -0.228342
   2 C :   -0.247792
   3 C :    0.035920
   4 O :   -0.171747
   5 O :   -0.070083
   6 C :   -0.109661
   7 C :   -0.350838
   8 H :    0.117760
   9 H :    0.121396
  10 H :    0.116680
  11 H :    0.124502
  12 H :    0.118209
  13 H :    0.127468
  14 H :    0.140931
  15 H :    0.117470
  16 H :    0.115564
  17 H :    0.126091
  18 H :    0.126132
  19 H :    0.130017

  Mayer bond orders larger than 0.100000
B(  0-C ,  1-C ) :   1.1588 B(  0-C ,  8-H ) :   0.9543 B(  0-C ,  9-H ) :   0.9531
B(  0-C , 10-H ) :   0.9526 B(  1-C ,  2-C ) :   1.1268 B(  1-C , 11-H ) :   0.9192
B(  1-C , 12-H ) :   0.9326 B(  2-C ,  3-C ) :   1.0265 B(  2-C , 13-H ) :   0.9094
B(  2-C , 14-H ) :   0.8906 B(  3-C ,  4-O ) :   2.0447 B(  3-C ,  5-O ) :   1.2229
B(  5-O ,  6-C ) :   0.9114 B(  6-C ,  7-C ) :   1.1523 B(  6-C , 15-H ) :   0.9244
B(  6-C , 16-H ) :   0.9354 B(  7-C , 17-H ) :   0.9487 B(  7-C , 18-H ) :   0.9517
B(  7-C , 19-H ) :   0.9446

Dispersion correction           -0.014209604
FINAL SINGLE POINT ENERGY      -385.458029425645

DIPOLE MOMENT
-------------

Method             : SCF
Type of density    : Electron Density
Multiplicity       :   1
Irrep              :   0
Energy             :  -385.5331895865018055 Eh
Relativity type    :
Basis              : AO
                                X                 Y                 Z
Electronic contribution:      3.008551462       3.918531742      -1.375559039
Nuclear contribution   :     -2.691048298      -4.397527595       1.815136406
                        -----------------------------------------
Total Dipole Moment    :      0.317503164      -0.478995853       0.439577367
                        -----------------------------------------
Magnitude (a.u.)       :      0.723514719
Magnitude (Debye)      :      1.839028265

Rotational constants in cm-1:             0.181643             0.027882             0.025499
Rotational constants in MHz :          5445.523854           835.870898           764.451205

                             ****ORCA TERMINATED NORMALLY****
TOTAL RUN TIME: 0 days 0 hours 0 minutes 11 seconds 188 msec
