                         Program Version 6.0.0  -   RELEASE  -
|  1> ! r2scan-3c def2/J RI DEFGRID2 scfconv6 printgap
|  2> %output
|  3>     printlevel normal
|  4> end
|  5> * xyz 0 1
|  6> C -2.175982922 -1.4726577065 -0.2335127725
|  7> C -2.4864582801 -0.0005296009 0.0083631467
|  8> C -1.356895936 0.6972159742 0.7754890847
|  9> C -0.1008631672 0.7349128644 -0.05655279
| 10> O -0.0086618059 1.2605744015 -1.1476442739
| 11> O 0.9016613258 0.1098554972 0.5427921838
| 12> C 2.1717487761 0.0298340089 -0.1266959062
| 13> C 2.8647462017 -1.2501152653 0.3029651141
| 14> H -1.2892414551 -1.5770286492 -0.8560783338
| 15> H -1.9969821382 -1.9852869435 0.7085613653
| 16> H -3.0068425285 -1.9565871135 -0.7398448197
| 17> H -3.4079773733 0.0906259967 0.5837299595
| 18> H -2.6254224271 0.5084723137 -0.9473539438
| 19> H -1.1420555686 0.1781841907 1.7085853719
| 20> H -1.6462045454 1.7277483681 0.9860119088
| 21> H 1.9971805592 0.0596681998 -1.2071489069
| 22> H 2.7540242711 0.9114125661 0.1583280006
| 23> H 2.2744542261 -2.1143749506 0.0116814321
| 24> H 3.8387541387 -1.3071902957 -0.1716783702
| 25> H 2.9892037738 -1.2586367203 1.3816657005
| 26> *
| 27>
| 28>                          ****END OF INPUT****

CARTESIAN COORDINATES (ANGSTROEM)
---------------------------------
  C     -2.175983   -1.472658   -0.233513
  C     -2.486458   -0.000530    0.008363
  C     -1.356896    0.697216    0.775489
  C     -0.100863    0.734913   -0.056553
  O     -0.008662    1.260574   -1.147644
  O      0.901661    0.109855    0.542792
  C      2.171749    0.029834   -0.126696
  C      2.864746   -1.250115    0.302965
  H     -1.289241   -1.577029   -0.856078
  H     -1.996982   -1.985287    0.708561
  H     -3.006843   -1.956587   -0.739845
  H     -3.407977    0.090626    0.583730
  H     -2.625422    0.508472   -0.947354
  H     -1.142056    0.178184    1.708585
  H     -1.646205    1.727748    0.986012
  H      1.997181    0.059668   -1.207149
  H      2.754024    0.911413    0.158328
  H      2.274454   -2.114375    0.011681
  H      3.838754   -1.307190   -0.171678
  H      2.989204   -1.258637    1.381666

 Total Charge           Charge          ....    0
 Multiplicity           Mult            ....    1
 Number of Electrons    NEL             ....   64
 Basis Dimension        Dim             ....  222

ORBITAL ENERGIES
----------------

  NO   OCC          E(Eh)            E(eV)
   0   2.0000     -18.997191      -516.9399
   1   2.0000     -18.926006      -515.0028
   2   2.0000     -10.150617      -276.2123
   3   2.0000     -10.090614      -274.5796
   4   2.0000     -10.039897      -273.1995
   5   2.0000     -10.034610      -273.0556
   6   2.0000     -10.032215      -272.9904
   7   2.0000     -10.019946      -272.6566
   8   2.0000      -1.071261       -29.1505
   9   2.0000      -0.973893       -26.5010
  10   2.0000      -0.773577       -21.0501
  11   2.0000      -0.742846       -20.2139
  12   2.0000      -0.677583       -18.4380
  13   2.0000      -0.619639       -16.8612
  14   2.0000      -0.565386       -15.3849
  15   2.0000      -0.528509       -14.3815
  16   2.0000      -0.468957       -12.7610
  17   2.0000      -0.464136       -12.6298
  18   2.0000      -0.439685       -11.9644
  19   2.0000      -0.420544       -11.4436
  20   2.0000      -0.406898       -11.0723
  21   2.0000      -0.384019       -10.4497
  22   2.0000      -0.378154       -10.2901
  23   2.0000      -0.366978        -9.9860
  24   2.0000      -0.359025        -9.7696
  25   2.0000      -0.338942        -9.2231
  26   2.0000      -0.320350        -8.7172
  27   2.0000      -0.310227        -8.4417
  28   2.0000      -0.308985        -8.4079
  29   2.0000      -0.304596        -8.2885
  30   2.0000      -0.270496        -7.3606
  31   2.0000      -0.234384        -6.3779
  32   0.0000      -0.014491        -0.3943
  33   0.0000       0.074609         2.0302
  34   0.0000       0.094539         2.5725
  35   0.0000       0.107491         2.9250
  36   0.0000       0.124179         3.3791

MULLIKEN ATOMIC CHARGES
-----------------------
   0 C :   -0.493899
   1 C :   -0.221625
   2 C :   -0.303997
   3 C :    0.345717
   4 O :   -0.427550
   5 O :   -0.160891
   6 C :   -0.160381
   7 C :   -0.439346
   8 H :    0.155477
   9 H :    0.147781
  10 H :    0.148691
  11 H :    0.145219
  12 H :    0.162452
  13 H :    0.163311
  14 H :    0.165306
  15 H :    0.177564
  16 H :    0.145089
  17 H :    0.151525
  18 H :    0.147068
  19 H :    0.152489
Sum of atomic charges:   -0.0000000

LOEWDIN ATOMIC CHARGES
----------------------
   0 C :   -0.417117
   1 C :   -0.291953
   2 C :   -0.232155
   3 C :    0.353750
   4 O :   -0.437896
   5 O :   -0.597703
   6 C :    0.031831
   7 C :   -0.386881
   8 H :    0.155297
   9 H :    0.151133
  10 H :    0.152683
  11 H :    0.152935
  12 H :    0.166739
  13 H :    0.176439
  14 H :    0.180819
  15 H :    0.190434
  16 H :    0.175099
  17 H :    0.158541
  18 H :    0.159237
  19 H :    0.158767

  Mayer bond orders larger than 0.100000
B(  0-C ,  1-C ) :   0.9029 B(  0-C ,  8-H ) :   0.9726 B(  0-C ,  9-H ) :   0.9816
B(  0-C , 10-H ) :   0.9686 B(  1-C ,  2-C ) :   0.8853 B(  1-C , 11-H ) :   0.9661
B(  1-C , 12-H ) :   0.9699 B(  2-C ,  3-C ) :   0.9383 B(  2-C , 13-H ) :   1.0053
B(  2-C , 14-H ) :   0.9440 B(  3-C ,  4-O ) :   1.8265 B(  3-C ,  5-O ) :   1.0623
B(  5-O ,  6-C ) :   0.7893 B(  6-C ,  7-C ) :   0.9458 B(  6-C , 15-H ) :   0.9652
B(  6-C , 16-H ) :   0.9465 B(  7-C , 17-H ) :   0.9733 B(  7-C , 18-H ) :   0.9683
B(  7-C , 19-H ) :   0.9689

Dispersion correction           -0.005098423
FINAL SINGLE POINT ENERGY      -386.235634949814

DIPOLE MOMENT
-------------

Method             : SCF
Type of density    : Electron Density
Multiplicity       :   1
Irrep              :   0
Energy             :  -386.2422618793003153 Eh
Relativity type    :
Basis              : AO
                                X                 Y                 Z
Electronic contribution:      1.391163627       5.778392243      -0.904647441
Nuclear contribution   :     -1.169888985      -6.286967221       1.507539498
                        -----------------------------------------
Total Dipole Moment    :      0.221274642      -0.508574978       0.602892057
                        -----------------------------------------
Magnitude (a.u.)       :      0.819200713
Magnitude (Debye)      :      2.082242734

Rotational constants in cm-1:             0.113066             0.038054             0.033145
Rotational constants in MHz :          3389.621945          1140.837275           993.651921

                             ****ORCA TERMINATED NORMALLY****
TOTAL RUN TIME: 0 days 0 hours 0 minutes 31 seconds 585 msec
