                         Program Version 6.0.0  -   RELEASE  -
|  1> ! r2scan-3c def2/J RI DEFGRID2 scfconv6 printgap
|  2> %output
|  3>     printlevel normal
|  4> end
|  5> %cpcm
|  6>     smd true
|  7>     smdsolvent "water"
|  8> end
|  9> * xyz 0 1
| 10> C -2.175982922 -1.4726577065 -0.2335127725
| 11> C -2.4864582801 -0.0005296009 0.0083631467
| 12> C -1.356895936 0.6972159742 0.7754890847
| 13> C -0.1008631672 0.7349128644 -0.05655279
| 14> O -0.0086618059 1.2605744015 -1.1476442739
| 15> O 0.9016613258 0.1098554972 0.5427921838
| 16> C 2.1717487761 0.0298340089 -0.1266959062
| 17> C 2.8647462017 -1.2501152653 0.3029651141
| 18> H -1.2892414551 -1.5770286492 -0.8560783338
| 19> H -1.9969821382 -1.9852869435 0.7085613653
| 20> H -3.0068425285 -1.9565871135 -0.7398448197
| 21> H -3.4079773733 0.0906259967 0.5837299595
| 22> H -2.6254224271 0.5084723137 -0.9473539438
| 23> H -1.1420555686 0.1781841907 1.7085853719
| 24> H -1.6462045454 1.7277483681 0.9860119088
| 25> H 1.9971805592 0.0596681998 -1.2071489069
| 26> H 2.7540242711 0.9114125661 0.1583280006
| 27> H 2.2744542261 -2.1143749506 0.0116814321
| 28> H 3.8387541387 -1.3071902957 -0.1716783702
| 29> H 2.9892037738 -1.2586367203 1.3816657005
| 30> *
| 31>
| 32>                          ****END OF INPUT****

CARTESIAN COORDINATES (ANGSTROEM)
---------------------------------
  C     -2.175983   -1.472658   -0.233513
  C     -2.486458   -0.000530    0.008363
  C     -1.356896    0.697216    0.775489
  C     -0.100863    0.734913   -0.056553
  O     -0.008662    1.260574   -1.147644
  O      0.901661    0.109855    0.542792
  C      2.171749    0.029834   -0.126696
  C      2.864746   -1.250115    0.302965
  H     -1.289241   -1.577029   -0.856078
  H     -1.996982   -1.985287    0.708561
  H     -3.006843   -1.956587   -0.739845
  H     -3.407977    0.090626    0.583730
  H     -2.625422    0.508472   -0.947354
  H     -1.142056    0.178184    1.708585
  H     -1.646205    1.727748    0.986012
  H      1.997181    0.059668   -1.207149
  H      2.754024    0.911413    0.158328
  H      2.274454   -2.114375    0.011681
  H      3.838754   -1.307190   -0.171678
  H      2.989204   -1.258637    1.381666

 Total Charge           Charge          ....    0
 Multiplicity           Mult            ....    1
 Number of Electrons    NEL             ....   64
 Basis Dimension        Dim             ....  222

ORBITAL ENERGIES
----------------

  NO   OCC          E(Eh)            E(eV)
   0   2.0000     -19.003344      -517.1073
   1   2.0000     -18.942699      -515.4571
   2   2.0000     -10.162033      -276.5230
   3   2.0000     -10.082946      -274.3709
   4   2.0000     -10.034935      -273.0645
   5   2.0000     -10.028623      -272.8927
   6   2.0000     -10.018710      -272.6230
   7   2.0000     -10.011669      -272.4314
   8   2.0000      -1.079070       -29.3630
   9   2.0000      -0.988406       -26.8959
  10   2.0000      -0.769633       -20.9428
  11   2.0000      -0.735279       -20.0080
  12   2.0000      -0.671836       -18.2816
  13   2.0000      -0.613261       -16.6877
  14   2.0000      -0.559008       -15.2114
  15   2.0000      -0.527651       -14.3581
  16   2.0000      -0.471952       -12.8425
  17   2.0000      -0.462326       -12.5805
  18   2.0000      -0.447623       -12.1805
  19   2.0000      -0.419727       -11.4214
  20   2.0000      -0.402954       -10.9649
  21   2.0000      -0.380715       -10.3598
  22   2.0000      -0.368917       -10.0387
  23   2.0000      -0.360454        -9.8085
  24   2.0000      -0.356069        -9.6891
  25   2.0000      -0.334397        -9.0994
  26   2.0000      -0.315097        -8.5742
  27   2.0000      -0.304909        -8.2970
  28   2.0000      -0.304056        -8.2738
  29   2.0000      -0.302761        -8.2386
  30   2.0000      -0.277469        -7.5503
  31   2.0000      -0.251364        -6.8400
  32   0.0000      -0.023081        -0.6281
  33   0.0000       0.077190         2.1005
  34   0.0000       0.103127         2.8062
  35   0.0000       0.117114         3.1868
  36   0.0000       0.130964         3.5637

MULLIKEN ATOMIC CHARGES
-----------------------
   0 C :   -0.531336
   1 C :   -0.226748
   2 C :   -0.320698
   3 C :    0.386401
   4 O :   -0.514098
   5 O :   -0.179971
   6 C :   -0.154148
   7 C :   -0.485335
   8 H :    0.163526
   9 H :    0.163531
  10 H :    0.161603
  11 H :    0.164463
  12 H :    0.156720
  13 H :    0.179080
  14 H :    0.191928
  15 H :    0.175753
  16 H :    0.171282
  17 H :    0.164738
  18 H :    0.168662
  19 H :    0.164646
Sum of atomic charges:   -0.0000000

LOEWDIN ATOMIC CHARGES
----------------------
   0 C :   -0.424143
   1 C :   -0.291156
   2 C :   -0.229341
   3 C :    0.363340
   4 O :   -0.499403
   5 O :   -0.599111
   6 C :    0.035972
   7 C :   -0.389958
   8 H :    0.156344
   9 H :    0.156120
  10 H :    0.156262
  11 H :    0.160528
  12 H :    0.163051
  13 H :    0.184155
  14 H :    0.190137
  15 H :    0.190767
  16 H :    0.184666
  17 H :    0.161705
  18 H :    0.167921
  19 H :    0.162145

  Mayer bond orders larger than 0.100000
B(  0-C ,  1-C ) :   0.8938 B(  0-C ,  8-H ) :   0.9699 B(  0-C ,  9-H ) :   0.9783
B(  0-C , 10-H ) :   0.9653 B(  1-C ,  2-C ) :   0.8725 B(  1-C , 11-H ) :   0.9619
B(  1-C , 12-H ) :   0.9737 B(  2-C ,  3-C ) :   0.9408 B(  2-C , 13-H ) :   0.9948
B(  2-C , 14-H ) :   0.9368 B(  3-C ,  4-O ) :   1.7559 B(  3-C ,  5-O ) :   1.0885
B(  5-O ,  6-C ) :   0.7781 B(  6-C ,  7-C ) :   0.9423 B(  6-C , 15-H ) :   0.9604
B(  6-C , 16-H ) :   0.9377 B(  7-C , 17-H ) :   0.9717 B(  7-C , 18-H ) :   0.9619
B(  7-C , 19-H ) :   0.9662

Dispersion correction           -0.005098423
FINAL SINGLE POINT ENERGY      -386.240980807679

DIPOLE MOMENT
-------------

Method             : SCF
Type of density    : Electron Density
Multiplicity       :   1
Irrep              :   0
Energy             :  -386.2476077371653673 Eh
Relativity type    :
Basis              : AO
                                X                 Y                 Z
Electronic contribution:      1.453834999       5.602993071      -0.608539869
Nuclear contribution   :     -1.169888985      -6.286967221       1.507539498
                        -----------------------------------------
Total Dipole Moment    :      0.283946014      -0.683974151       0.898999629
                        -----------------------------------------
Magnitude (a.u.)       :      1.164751609
Magnitude (Debye)      :      2.960563310

Rotational constants in cm-1:             0.113066             0.038054             0.033145
Rotational constants in MHz :          3389.621945          1140.837275           993.651921

                             ****ORCA TERMINATED NORMALLY****
TOTAL RUN TIME: 0 days 0 hours 0 minutes 38 seconds 261 msec
