                         Program Version 6.0.0  -   RELEASE  -
|  1> ! pbe def2-sv(p) def2/J RI DEFGRID1 loosescf d4 GCP(DFT/SV(P)) printgap
|  2> %output
|  3>     printlevel normal
|  4> end
|  5> * xyz 0 1
|  6> C -2.175982922 -1.4726577065 -0.2335127725
|  7> C -2.4864582801 -0.0005296009 0.0083631467
|  8> C -1.356895936 0.6972159742 0.7754890847
|  9> C -0.1008631672 0.7349128644 -0.05655279
| 10> O -0.0086618059 1.2605744015 -1.1476442739
| 11> O 0.9016613258 0.1098554972 0.5427921838
| 12> C 2.1717487761 0.0298340089 -0.1266959062
| 13> C 2.8647462017 -1.2501152653 0.3029651141
| 14> H -1.2892414551 -1.5770286492 -0.8560783338
| 15> H -1.9969821382 -1.9852869435 0.7085613653
| 16> H -3.0068425285 -1.9565871135 -0.7398448197
| 17> H -3.4079773733 0.0906259967 0.5837299595
| 18> H -2.6254224271 0.5084723137 -0.9473539438
| 19> H -1.1420555686 0.1781841907 1.7085853719
| 20> H -1.6462045454 1.7277483681 0.9860119088
| 21> H 1.9971805592 0.0596681998 -1.2071489069
| 22> H 2.7540242711 0.9114125661 0.1583280006
| 23> H 2.2744542261 -2.1143749506 0.0116814321
| 24> H 3.8387541387 -1.3071902957 -0.1716783702
| 25> H 2.9892037738 -1.2586367203 1.3816657005
| 26> *
| 27>
| 28>                          ****END OF INPUT****

CARTESIAN COORDINATES (ANGSTROEM)
---------------------------------
  C     -2.175983   -1.472658   -0.233513
  C     -2.486458   -0.000530    0.008363
  C     -1.356896    0.697216    0.775489
  C     -0.100863    0.734913   -0.056553
  O     -0.008662    1.260574   -1.147644
  O      0.901661    0.109855    0.542792
  C      2.171749    0.029834   -0.126696
  C      2.864746   -1.250115    0.302965
  H     -1.289241   -1.577029   -0.856078
  H     -1.996982   -1.985287    0.708561
  H     -3.006843   -1.956587   -0.739845
  H     -3.407977    0.090626    0.583730
  H     -2.625422    0.508472   -0.947354
  H     -1.142056    0.178184    1.708585
  H     -1.646205    1.727748    0.986012
  H      1.997181    0.059668   -1.207149
  H      2.754024    0.911413    0.158328
  H      2.274454   -2.114375    0.011681
  H      3.838754   -1.307190   -0.171678
  H      2.989204   -1.258637    1.381666

 Total Charge           Charge          ....    0
 Multiplicity           Mult            ....    1
 Number of Electrons    NEL             ....   64
 Basis Dimension        Dim             ....  136

ORBITAL ENERGIES
----------------

  NO   OCC          E(Eh)            E(eV)
   0   2.0000     -18.797974      -511.5189
   1   2.0000     -18.729330      -509.6510
   2   2.0000     -10.003621      -272.2124
   3   2.0000      -9.945934      -270.6426
   4   2.0000      -9.895349      -269.2661
   5   2.0000      -9.891643      -269.1653
   6   2.0000      -9.889753      -269.1138
   7   2.0000      -9.877673      -268.7851
   8   2.0000      -1.003805       -27.3149
   9   2.0000      -0.906792       -24.6751
  10   2.0000      -0.727998       -19.8098
  11   2.0000      -0.699831       -19.0434
  12   2.0000      -0.636395       -17.3172
  13   2.0000      -0.585512       -15.9326
  14   2.0000      -0.531393       -14.4600
  15   2.0000      -0.502061       -13.6618
  16   2.0000      -0.446782       -12.1575
  17   2.0000      -0.445762       -12.1298
  18   2.0000      -0.417848       -11.3702
  19   2.0000      -0.398545       -10.8450
  20   2.0000      -0.387718       -10.5503
  21   2.0000      -0.368435       -10.0256
  22   2.0000      -0.362801        -9.8723
  23   2.0000      -0.352149        -9.5825
  24   2.0000      -0.344570        -9.3762
  25   2.0000      -0.325806        -8.8656
  26   2.0000      -0.307251        -8.3607
  27   2.0000      -0.298355        -8.1187
  28   2.0000      -0.296813        -8.0767
  29   2.0000      -0.288845        -7.8599
  30   2.0000      -0.254807        -6.9336
  31   2.0000      -0.215939        -5.8760
  32   0.0000      -0.019149        -0.5211
  33   0.0000       0.034275         0.9327
  34   0.0000       0.054200         1.4749
  35   0.0000       0.072688         1.9780
  36   0.0000       0.080475         2.1898

MULLIKEN ATOMIC CHARGES
-----------------------
   0 C :   -0.288864
   1 C :   -0.205745
   2 C :   -0.117548
   3 C :    0.087223
   4 O :   -0.212167
   5 O :   -0.237495
   6 C :   -0.029606
   7 C :   -0.280920
   8 H :    0.115783
   9 H :    0.099537
  10 H :    0.107992
  11 H :    0.092908
  12 H :    0.108759
  13 H :    0.091800
  14 H :    0.111554
  15 H :    0.113264
  16 H :    0.103674
  17 H :    0.114235
  18 H :    0.111277
  19 H :    0.114339
Sum of atomic charges:    0.0000000

LOEWDIN ATOMIC CHARGES
----------------------
   0 C :   -0.342843
   1 C :   -0.226285
   2 C :   -0.245949
   3 C :    0.034578
   4 O :   -0.174313
   5 O :   -0.067407
   6 C :   -0.111880
   7 C :   -0.350907
   8 H :    0.119724
   9 H :    0.117661
  10 H :    0.121704
  11 H :    0.118147
  12 H :    0.124648
  13 H :    0.125617
  14 H :    0.140916
  15 H :    0.118725
  16 H :    0.116279
  17 H :    0.125804
  18 H :    0.129925
  19 H :    0.125856

  Mayer bond orders larger than 0.100000
B(  0-C ,  1-C ) :   1.1542 B(  0-C ,  8-H ) :   0.9483 B(  0-C ,  9-H ) :   0.9538
B(  0-C , 10-H ) :   0.9516 B(  1-C ,  2-C ) :   1.1124 B(  1-C , 11-H ) :   0.9287
B(  1-C , 12-H ) :   0.9209 B(  2-C ,  3-C ) :   1.0173 B(  2-C , 13-H ) :   0.9101
B(  2-C , 14-H ) :   0.8956 B(  3-C ,  4-O ) :   2.0508 B(  3-C ,  5-O ) :   1.2128
B(  5-O ,  6-C ) :   0.9128 B(  6-C ,  7-C ) :   1.1574 B(  6-C , 15-H ) :   0.9159
B(  6-C , 16-H ) :   0.9362 B(  7-C , 17-H ) :   0.9521 B(  7-C , 18-H ) :   0.9447
B(  7-C , 19-H ) :   0.9487

Dispersion correction           -0.015008124
FINAL SINGLE POINT ENERGY      -385.457715441445

DIPOLE MOMENT
-------------

Method             : SCF
Type of density    : Electron Density
Multiplicity       :   1
Irrep              :   0
Energy             :  -385.5326435392502731 Eh
Relativity type    :
Basis              : AO
                                X                 Y                 Z
Electronic contribution:      1.417866092       5.835452479      -0.975903921
Nuclear contribution   :     -1.169888985      -6.286967221       1.507539498
                        -----------------------------------------
Total Dipole Moment    :      0.247977108      -0.451514743       0.531635577
                        -----------------------------------------
Magnitude (a.u.)       :      0.740266571
Magnitude (Debye)      :      1.881608089

Rotational constants in cm-1:             0.113066             0.038054             0.033145
Rotational constants in MHz :          3389.621945          1140.837275           993.651921

                             ****ORCA TERMINATED NORMALLY****
TOTAL RUN TIME: 0 days 0 hours 0 minutes 10 seconds 904 msec
