                         Program Version 6.0.0  -   RELEASE  -
|  1> ! r2scan-3c def2/J RI DEFGRID2 scfconv6 printgap
|  2> %output
|  3>     printlevel normal
|  4> end
|  5> * xyz 0 1
|  6> C -1.7309472002 -1.3496985727 0.3549301734
|  7> C -2.3772312897 -0.0190446933 -0.0104835626
|  8> C -1.4349440887 0.9299478179 -0.750580561
|  9> C -0.2745453917 1.430766549 0.1161945911
| 10> C 0.8119813009 0.4131790613 0.3413813368
| 11> O 1.3454238414 0.2003566379 1.4129226115
| 12> O 1.1729328511 -0.2021473038 -0.7784279833
| 13> C 2.2175086792 -1.1717287418 -0.6914276871
| 14> H -0.9199950471 -1.2071217359 1.0665839913
| 15> H -2.4623881012 -2.012495144 0.8111211817
| 16> H -1.3316726318 -1.8356120745 -0.5328328752
| 17> H -3.2407136072 -0.2117311651 -0.6503207395
| 18> H -2.7390070998 0.4675233673 0.897808161
| 19> H -2.0078217394 1.7981278232 -1.0792315996
| 20> H -1.0317894453 0.434248145 -1.6342804661
| 21> H -0.6300327156 1.7647709234 1.0915770513
| 22> H 0.2022100105 2.276160129 -0.3851616309
| 23> H 2.4414350546 -1.4553554559 -1.7149312422
| 24> H 1.8786124263 -2.0327029941 -0.1134865771
| 25> H 3.0910981821 -0.739036445 -0.2021920152
| 26> *
| 27>
| 28>                          ****END OF INPUT****

CARTESIAN COORDINATES (ANGSTROEM)
---------------------------------
  C     -1.730947   -1.349699    0.354930
  C     -2.377231   -0.019045   -0.010484
  C     -1.434944    0.929948   -0.750581
  C     -0.274545    1.430767    0.116195
  C      0.811981    0.413179    0.341381
  O      1.345424    0.200357    1.412923
  O      1.172933   -0.202147   -0.778428
  C      2.217509   -1.171729   -0.691428
  H     -0.919995   -1.207122    1.066584
  H     -2.462388   -2.012495    0.811121
  H     -1.331673   -1.835612   -0.532833
  H     -3.240714   -0.211731   -0.650321
  H     -2.739007    0.467523    0.897808
  H     -2.007822    1.798128   -1.079232
  H     -1.031789    0.434248   -1.634280
  H     -0.630033    1.764771    1.091577
  H      0.202210    2.276160   -0.385162
  H      2.441435   -1.455355   -1.714931
  H      1.878612   -2.032703   -0.113487
  H      3.091098   -0.739036   -0.202192

 Total Charge           Charge          ....    0
 Multiplicity           Mult            ....    1
 Number of Electrons    NEL             ....   64
 Basis Dimension        Dim             ....  222

ORBITAL ENERGIES
----------------

  NO   OCC          E(Eh)            E(eV)
   0   2.0000     -18.999675      -517.0074
   1   2.0000     -18.927313      -515.0384
   2   2.0000     -10.152718      -276.2695
   3   2.0000     -10.087378      -274.4915
   4   2.0000     -10.043077      -273.2860
   5   2.0000     -10.033292      -273.0198
   6   2.0000     -10.028280      -272.8834
   7   2.0000     -10.015796      -272.5437
   8   2.0000      -1.074135       -29.2287
   9   2.0000      -0.974385       -26.5144
  10   2.0000      -0.780209       -21.2306
  11   2.0000      -0.724338       -19.7102
  12   2.0000      -0.684454       -18.6250
  13   2.0000      -0.625832       -17.0298
  14   2.0000      -0.550331       -14.9753
  15   2.0000      -0.534058       -14.5325
  16   2.0000      -0.471982       -12.8433
  17   2.0000      -0.463021       -12.5994
  18   2.0000      -0.436353       -11.8738
  19   2.0000      -0.429543       -11.6885
  20   2.0000      -0.411110       -11.1869
  21   2.0000      -0.390907       -10.6371
  22   2.0000      -0.376468       -10.2442
  23   2.0000      -0.370899       -10.0927
  24   2.0000      -0.351130        -9.5547
  25   2.0000      -0.338439        -9.2094
  26   2.0000      -0.324966        -8.8428
  27   2.0000      -0.308031        -8.3820
  28   2.0000      -0.299598        -8.1525
  29   2.0000      -0.292829        -7.9683
  30   2.0000      -0.273505        -7.4425
  31   2.0000      -0.232340        -6.3223
  32   0.0000      -0.015255        -0.4151
  33   0.0000       0.063764         1.7351
  34   0.0000       0.089388         2.4324
  35   0.0000       0.099963         2.7201
  36   0.0000       0.121166         3.2971

MULLIKEN ATOMIC CHARGES
-----------------------
   0 C :   -0.487512
   1 C :   -0.262984
   2 C :   -0.233296
   3 C :   -0.346817
   4 C :    0.331793
   5 O :   -0.416510
   6 O :   -0.170095
   7 C :   -0.290421
   8 H :    0.168815
   9 H :    0.148266
  10 H :    0.151422
  11 H :    0.144204
  12 H :    0.139760
  13 H :    0.145003
  14 H :    0.159602
  15 H :    0.176605
  16 H :    0.166746
  17 H :    0.149933
  18 H :    0.159602
  19 H :    0.165882
Sum of atomic charges:    0.0000000

LOEWDIN ATOMIC CHARGES
----------------------
   0 C :   -0.418051
   1 C :   -0.309233
   2 C :   -0.290417
   3 C :   -0.227302
   4 C :    0.339835
   5 O :   -0.433222
   6 O :   -0.613255
   7 C :   -0.044605
   8 H :    0.165457
   9 H :    0.150880
  10 H :    0.152407
  11 H :    0.152996
  12 H :    0.152885
  13 H :    0.156238
  14 H :    0.170446
  15 H :    0.179955
  16 H :    0.183862
  17 H :    0.175756
  18 H :    0.175564
  19 H :    0.179805

  Mayer bond orders larger than 0.100000
B(  0-C ,  1-C ) :   0.8896 B(  0-C ,  8-H ) :   0.9620 B(  0-C ,  9-H ) :   0.9647
B(  0-C , 10-H ) :   0.9807 B(  1-C ,  2-C ) :   0.9272 B(  1-C , 11-H ) :   0.9590
B(  1-C , 12-H ) :   0.9902 B(  2-C ,  3-C ) :   0.8587 B(  2-C , 13-H ) :   0.9615
B(  2-C , 14-H ) :   0.9756 B(  3-C ,  4-C ) :   0.9683 B(  3-C , 15-H ) :   1.0089
B(  3-C , 16-H ) :   0.9259 B(  4-C ,  5-O ) :   1.8337 B(  4-C ,  6-O ) :   1.0342
B(  6-O ,  7-C ) :   0.8514 B(  7-C , 17-H ) :   0.9697 B(  7-C , 18-H ) :   0.9609
B(  7-C , 19-H ) :   0.9635

Dispersion correction           -0.005578256
FINAL SINGLE POINT ENERGY      -386.229536931980

DIPOLE MOMENT
-------------

Method             : SCF
Type of density    : Electron Density
Multiplicity       :   1
Irrep              :   0
Energy             :  -386.2360779890684057 Eh
Relativity type    :
Basis              : AO
                                X                 Y                 Z
Electronic contribution:      6.070503694       2.500530730       1.460572817
Nuclear contribution   :     -6.295343316      -2.583010212      -2.284734505
                        -----------------------------------------
Total Dipole Moment    :     -0.224839622      -0.082479482      -0.824161689
                        -----------------------------------------
Magnitude (a.u.)       :      0.858252999
Magnitude (Debye)      :      2.181505756

Rotational constants in cm-1:             0.099092             0.045567             0.041633
Rotational constants in MHz :          2970.698572          1366.067960          1248.133754

                             ****ORCA TERMINATED NORMALLY****
TOTAL RUN TIME: 0 days 0 hours 0 minutes 26 seconds 534 msec
