                         Program Version 6.0.0  -   RELEASE  -
|  1> ! r2scan-3c def2/J RI DEFGRID2 scfconv6 printgap
|  2> %output
|  3>     printlevel normal
|  4> end
|  5> %cpcm
|  6>     smd true
|  7>     smdsolvent "water"
|  8> end
|  9> * xyz 0 1
| 10> C -1.7309472002 -1.3496985727 0.3549301734
| 11> C -2.3772312897 -0.0190446933 -0.0104835626
| 12> C -1.4349440887 0.9299478179 -0.750580561
| 13> C -0.2745453917 1.430766549 0.1161945911
| 14> C 0.8119813009 0.4131790613 0.3413813368
| 15> O 1.3454238414 0.2003566379 1.4129226115
| 16> O 1.1729328511 -0.2021473038 -0.7784279833
| 17> C 2.2175086792 -1.1717287418 -0.6914276871
| 18> H -0.9199950471 -1.2071217359 1.0665839913
| 19> H -2.4623881012 -2.012495144 0.8111211817
| 20> H -1.3316726318 -1.8356120745 -0.5328328752
| 21> H -3.2407136072 -0.2117311651 -0.6503207395
| 22> H -2.7390070998 0.4675233673 0.897808161
| 23> H -2.0078217394 1.7981278232 -1.0792315996
| 24> H -1.0317894453 0.434248145 -1.6342804661
| 25> H -0.6300327156 1.7647709234 1.0915770513
| 26> H 0.2022100105 2.276160129 -0.3851616309
| 27> H 2.4414350546 -1.4553554559 -1.7149312422
| 28> H 1.8786124263 -2.0327029941 -0.1134865771
| 29> H 3.0910981821 -0.739036445 -0.2021920152
| 30> *
| 31>
| 32>                          ****END OF INPUT****

CARTESIAN COORDINATES (ANGSTROEM)
---------------------------------
  C     -1.730947   -1.349699    0.354930
  C     -2.377231   -0.019045   -0.010484
  C     -1.434944    0.929948   -0.750581
  C     -0.274545    1.430767    0.116195
  C      0.811981    0.413179    0.341381
  O      1.345424    0.200357    1.412923
  O      1.172933   -0.202147   -0.778428
  C      2.217509   -1.171729   -0.691428
  H     -0.919995   -1.207122    1.066584
  H     -2.462388   -2.012495    0.811121
  H     -1.331673   -1.835612   -0.532833
  H     -3.240714   -0.211731   -0.650321
  H     -2.739007    0.467523    0.897808
  H     -2.007822    1.798128   -1.079232
  H     -1.031789    0.434248   -1.634280
  H     -0.630033    1.764771    1.091577
  H      0.202210    2.276160   -0.385162
  H      2.441435   -1.455355   -1.714931
  H      1.878612   -2.032703   -0.113487
  H      3.091098   -0.739036   -0.202192

 Total Charge           Charge          ....    0
 Multiplicity           Mult            ....    1
 Number of Electrons    NEL             ....   64
 Basis Dimension        Dim             ....  222

ORBITAL ENERGIES
----------------

  NO   OCC          E(Eh)            E(eV)
   0   2.0000     -19.004024      -517.1258
   1   2.0000     -18.942520      -515.4522
   2   2.0000     -10.162450      -276.5343
   3   2.0000     -10.076763      -274.2027
   4   2.0000     -10.036504      -273.1072
   5   2.0000     -10.024471      -272.7797
   6   2.0000     -10.018696      -272.6226
   7   2.0000     -10.009238      -272.3652
   8   2.0000      -1.080103       -29.3911
   9   2.0000      -0.987519       -26.8718
  10   2.0000      -0.773512       -21.0483
  11   2.0000      -0.719038       -19.5660
  12   2.0000      -0.677652       -18.4398
  13   2.0000      -0.619338       -16.8530
  14   2.0000      -0.544153       -14.8072
  15   2.0000      -0.530314       -14.4306
  16   2.0000      -0.470046       -12.7906
  17   2.0000      -0.461839       -12.5673
  18   2.0000      -0.449961       -12.2441
  19   2.0000      -0.421863       -11.4795
  20   2.0000      -0.405065       -11.0224
  21   2.0000      -0.383788       -10.4434
  22   2.0000      -0.372670       -10.1409
  23   2.0000      -0.367907       -10.0112
  24   2.0000      -0.349269        -9.5041
  25   2.0000      -0.331374        -9.0171
  26   2.0000      -0.325212        -8.8495
  27   2.0000      -0.301654        -8.2084
  28   2.0000      -0.292631        -7.9629
  29   2.0000      -0.285821        -7.7776
  30   2.0000      -0.279482        -7.6051
  31   2.0000      -0.247485        -6.7344
  32   0.0000      -0.022631        -0.6158
  33   0.0000       0.069554         1.8927
  34   0.0000       0.096967         2.6386
  35   0.0000       0.110119         2.9965
  36   0.0000       0.129152         3.5144

MULLIKEN ATOMIC CHARGES
-----------------------
   0 C :   -0.518648
   1 C :   -0.272680
   2 C :   -0.241676
   3 C :   -0.365916
   4 C :    0.376023
   5 O :   -0.504705
   6 O :   -0.184676
   7 C :   -0.324763
   8 H :    0.162077
   9 H :    0.160411
  10 H :    0.163973
  11 H :    0.155303
  12 H :    0.151455
  13 H :    0.161822
  14 H :    0.161451
  15 H :    0.185976
  16 H :    0.199196
  17 H :    0.178390
  18 H :    0.180048
  19 H :    0.176940
Sum of atomic charges:    0.0000000

LOEWDIN ATOMIC CHARGES
----------------------
   0 C :   -0.424134
   1 C :   -0.310589
   2 C :   -0.287826
   3 C :   -0.225484
   4 C :    0.348949
   5 O :   -0.496550
   6 O :   -0.613679
   7 C :   -0.042361
   8 H :    0.162020
   9 H :    0.154004
  10 H :    0.155680
  11 H :    0.156478
  12 H :    0.156282
  13 H :    0.162788
  14 H :    0.170427
  15 H :    0.183980
  16 H :    0.196358
  17 H :    0.188178
  18 H :    0.182111
  19 H :    0.183370

  Mayer bond orders larger than 0.100000
B(  0-C ,  1-C ) :   0.8778 B(  0-C ,  8-H ) :   0.9634 B(  0-C ,  9-H ) :   0.9625
B(  0-C , 10-H ) :   0.9778 B(  1-C ,  2-C ) :   0.9218 B(  1-C , 11-H ) :   0.9583
B(  1-C , 12-H ) :   0.9902 B(  2-C ,  3-C ) :   0.8447 B(  2-C , 13-H ) :   0.9587
B(  2-C , 14-H ) :   0.9760 B(  3-C ,  4-C ) :   0.9703 B(  3-C , 15-H ) :   1.0046
B(  3-C , 16-H ) :   0.9165 B(  4-C ,  5-O ) :   1.7611 B(  4-C ,  6-O ) :   1.0619
B(  6-O ,  7-C ) :   0.8318 B(  7-C , 17-H ) :   0.9598 B(  7-C , 18-H ) :   0.9549
B(  7-C , 19-H ) :   0.9591

Dispersion correction           -0.005578256
FINAL SINGLE POINT ENERGY      -386.234887839221

DIPOLE MOMENT
-------------

Method             : SCF
Type of density    : Electron Density
Multiplicity       :   1
Irrep              :   0
Energy             :  -386.2414288963087188 Eh
Relativity type    :
Basis              : AO
                                X                 Y                 Z
Electronic contribution:      5.939723282       2.531826142       1.112772837
Nuclear contribution   :     -6.295343316      -2.583010212      -2.284734505
                        -----------------------------------------
Total Dipole Moment    :     -0.355620034      -0.051184070      -1.171961668
                        -----------------------------------------
Magnitude (a.u.)       :      1.225797524
Magnitude (Debye)      :      3.115729694

Rotational constants in cm-1:             0.099092             0.045567             0.041633
Rotational constants in MHz :          2970.698572          1366.067960          1248.133754

                             ****ORCA TERMINATED NORMALLY****
TOTAL RUN TIME: 0 days 0 hours 0 minutes 34 seconds 442 msec
