                         Program Version 6.0.0  -   RELEASE  -
|  1> ! pbe def2-sv(p) def2/J RI DEFGRID1 loosescf d4 GCP(DFT/SV(P)) printgap
|  2> %output
|  3>     printlevel normal
|  4> end
|  5> * xyz 0 1
|  6> C -3.6619675287 -0.4189344364 0.3870458353
|  7> C -2.3730854572 0.2137018385 -0.1214386761
|  8> C -1.1515538756 -0.6064278728 0.2838679419
|  9> C 0.1313485613 -0.0243104783 -0.2481827115
| 10> O 0.2131444849 0.9228125002 -1.0007362652
| 11> O 1.1858821908 -0.6982755064 0.2030347633
| 12> C 2.4962585498 -0.2713996822 -0.206743855
| 13> C 3.0235149351 0.8330549781 0.6964370923
| 14> H -3.7844560739 -1.4177267553 -0.0243389182
| 15> H -3.6488271577 -0.4915124121 1.4716392521
| 16> H -4.5178821935 0.1817863288 0.0924644234
| 17> H -2.2715732106 1.2252768422 0.2758874734
| 18> H -2.399748565 0.2963005733 -1.2095015418
| 19> H -1.2311860626 -1.6268611891 -0.0974029905
| 20> H -1.0664167617 -0.6729684854 1.3698089443
| 21> H 3.1105933058 -1.1694195743 -0.1363194899
| 22> H 2.4423919936 0.073040775 -1.2439828389
| 23> H 3.0198219397 0.5035545967 1.7318808332
| 24> H 4.0375954151 1.0839050561 0.4029949205
| 25> H 2.399697014 1.7193053914 0.6035174604
| 26> *
| 27>
| 28>                          ****END OF INPUT****

CARTESIAN COORDINATES (ANGSTROEM)
---------------------------------
  C     -3.661968   -0.418934    0.387046
  C     -2.373085    0.213702   -0.121439
  C     -1.151554   -0.606428    0.283868
  C      0.131349   -0.024310   -0.248183
  O      0.213144    0.922813   -1.000736
  O      1.185882   -0.698276    0.203035
  C      2.496259   -0.271400   -0.206744
  C      3.023515    0.833055    0.696437
  H     -3.784456   -1.417727   -0.024339
  H     -3.648827   -0.491512    1.471639
  H     -4.517882    0.181786    0.092464
  H     -2.271573    1.225277    0.275887
  H     -2.399749    0.296301   -1.209502
  H     -1.231186   -1.626861   -0.097403
  H     -1.066417   -0.672968    1.369809
  H      3.110593   -1.169420   -0.136319
  H      2.442392    0.073041   -1.243983
  H      3.019822    0.503555    1.731881
  H      4.037595    1.083905    0.402995
  H      2.399697    1.719305    0.603517

 Total Charge           Charge          ....    0
 Multiplicity           Mult            ....    1
 Number of Electrons    NEL             ....   64
 Basis Dimension        Dim             ....  136

ORBITAL ENERGIES
----------------

  NO   OCC          E(Eh)            E(eV)
   0   2.0000     -18.794709      -511.4300
   1   2.0000     -18.732999      -509.7508
   2   2.0000     -10.005239      -272.2564
   3   2.0000      -9.945480      -270.6303
   4   2.0000      -9.897749      -269.3314
   5   2.0000      -9.885902      -269.0091
   6   2.0000      -9.885741      -269.0047
   7   2.0000      -9.876275      -268.7471
   8   2.0000      -1.002216       -27.2717
   9   2.0000      -0.909148       -24.7392
  10   2.0000      -0.725025       -19.7289
  11   2.0000      -0.696361       -18.9489
  12   2.0000      -0.638863       -17.3844
  13   2.0000      -0.587775       -15.9942
  14   2.0000      -0.528275       -14.3751
  15   2.0000      -0.490915       -13.3585
  16   2.0000      -0.452787       -12.3210
  17   2.0000      -0.438560       -11.9338
  18   2.0000      -0.419251       -11.4084
  19   2.0000      -0.400288       -10.8924
  20   2.0000      -0.391568       -10.6551
  21   2.0000      -0.371191       -10.1006
  22   2.0000      -0.361104        -9.8261
  23   2.0000      -0.350150        -9.5281
  24   2.0000      -0.336268        -9.1503
  25   2.0000      -0.323004        -8.7894
  26   2.0000      -0.309390        -8.4189
  27   2.0000      -0.300025        -8.1641
  28   2.0000      -0.291817        -7.9408
  29   2.0000      -0.287840        -7.8325
  30   2.0000      -0.254516        -6.9257
  31   2.0000      -0.218867        -5.9557
  32   0.0000      -0.018104        -0.4926
  33   0.0000       0.036379         0.9899
  34   0.0000       0.053612         1.4588
  35   0.0000       0.079545         2.1645
  36   0.0000       0.081553         2.2192

MULLIKEN ATOMIC CHARGES
-----------------------
   0 C :   -0.252685
   1 C :   -0.197657
   2 C :   -0.182830
   3 C :    0.134805
   4 O :   -0.209586
   5 O :   -0.242992
   6 C :   -0.009706
   7 C :   -0.304246
   8 H :    0.095703
   9 H :    0.095234
  10 H :    0.105234
  11 H :    0.096475
  12 H :    0.100479
  13 H :    0.109711
  14 H :    0.106824
  15 H :    0.100081
  16 H :    0.105873
  17 H :    0.111877
  18 H :    0.111237
  19 H :    0.126167
Sum of atomic charges:   -0.0000000

LOEWDIN ATOMIC CHARGES
----------------------
   0 C :   -0.339471
   1 C :   -0.230691
   2 C :   -0.251478
   3 C :    0.039934
   4 O :   -0.167161
   5 O :   -0.073591
   6 C :   -0.112548
   7 C :   -0.356690
   8 H :    0.116461
   9 H :    0.116203
  10 H :    0.120951
  11 H :    0.120964
  12 H :    0.122574
  13 H :    0.139732
  14 H :    0.136779
  15 H :    0.116231
  16 H :    0.118365
  17 H :    0.123666
  18 H :    0.129699
  19 H :    0.130070

  Mayer bond orders larger than 0.100000
B(  0-C ,  1-C ) :   1.1533 B(  0-C ,  8-H ) :   0.9536 B(  0-C ,  9-H ) :   0.9531
B(  0-C , 10-H ) :   0.9542 B(  1-C ,  2-C ) :   1.1328 B(  1-C , 11-H ) :   0.9293
B(  1-C , 12-H ) :   0.9254 B(  2-C ,  3-C ) :   1.0177 B(  2-C , 13-H ) :   0.8940
B(  2-C , 14-H ) :   0.9010 B(  3-C ,  4-O ) :   2.0381 B(  3-C ,  5-O ) :   1.2126
B(  5-O ,  6-C ) :   0.9243 B(  6-C ,  7-C ) :   1.1732 B(  6-C , 15-H ) :   0.9377
B(  6-C , 16-H ) :   0.9145 B(  7-C , 17-H ) :   0.9491 B(  7-C , 18-H ) :   0.9445
B(  7-C , 19-H ) :   0.9465

Dispersion correction           -0.014597261
FINAL SINGLE POINT ENERGY      -385.458976663588

DIPOLE MOMENT
-------------

Method             : SCF
Type of density    : Electron Density
Multiplicity       :   1
Irrep              :   0
Energy             :  -385.5342109904684094 Eh
Relativity type    :
Basis              : AO
                                X                 Y                 Z
Electronic contribution:      3.925935857      -0.164993887      -2.624415457
Nuclear contribution   :     -3.647477744      -0.273728841       3.024686476
                        -----------------------------------------
Total Dipole Moment    :      0.278458113      -0.438722728       0.400271019
                        -----------------------------------------
Magnitude (a.u.)       :      0.655921826
Magnitude (Debye)      :      1.667220785

Rotational constants in cm-1:             0.200389             0.028360             0.027120
Rotational constants in MHz :          6007.498016           850.214663           813.047380

                             ****ORCA TERMINATED NORMALLY****
TOTAL RUN TIME: 0 days 0 hours 0 minutes 10 seconds 398 msec
