                         Program Version 6.0.0  -   RELEASE  -
|  1> ! r2scan-3c def2/J RI DEFGRID2 scfconv6 printgap
|  2> %output
|  3>     printlevel normal
|  4> end
|  5> * xyz 0 1
|  6> C -1.7759185348 -1.2069944982 -0.5657167594
|  7> C -2.3607318639 -0.0621396956 0.2523254221
|  8> C -1.3334086856 0.6306057942 1.1473498326
|  9> C -0.2610550771 1.3937499283 0.3624379739
| 10> C 0.7787660989 0.5141380055 -0.2792223066
| 11> O 1.1968492347 0.6557146703 -1.4120137305
| 12> O 1.2399872277 -0.4166784528 0.547736647
| 13> C 2.2519269828 -1.2939535081 0.0525794538
| 14> H -1.2954353431 -1.9339729778 0.0856485902
| 15> H -2.5603949953 -1.7109365916 -1.1252571988
| 16> H -1.0398721717 -0.8406655076 -1.2789061741
| 17> H -2.8051730478 0.6727081443 -0.422253813
| 18> H -3.1576135004 -0.4550359185 0.8868549931
| 19> H -0.8490116501 -0.1051149853 1.7901406078
| 20> H -1.8566197707 1.3460084487 1.7833520028
| 21> H 0.279634459 2.0499049811 1.0484238433
| 22> H -0.7102442027 2.0079001525 -0.4188298419
| 23> H 2.5250214247 -1.9290979975 0.8893639561
| 24> H 3.1083384001 -0.7173876588 -0.2995896044
| 25> H 1.8595709047 -1.8856870482 -0.7758318891
| 26> *
| 27>
| 28>                          ****END OF INPUT****

CARTESIAN COORDINATES (ANGSTROEM)
---------------------------------
  C     -1.775919   -1.206994   -0.565717
  C     -2.360732   -0.062140    0.252325
  C     -1.333409    0.630606    1.147350
  C     -0.261055    1.393750    0.362438
  C      0.778766    0.514138   -0.279222
  O      1.196849    0.655715   -1.412014
  O      1.239987   -0.416678    0.547737
  C      2.251927   -1.293954    0.052579
  H     -1.295435   -1.933973    0.085649
  H     -2.560395   -1.710937   -1.125257
  H     -1.039872   -0.840666   -1.278906
  H     -2.805173    0.672708   -0.422254
  H     -3.157614   -0.455036    0.886855
  H     -0.849012   -0.105115    1.790141
  H     -1.856620    1.346008    1.783352
  H      0.279634    2.049905    1.048424
  H     -0.710244    2.007900   -0.418830
  H      2.525021   -1.929098    0.889364
  H      3.108338   -0.717388   -0.299590
  H      1.859571   -1.885687   -0.775832

 Total Charge           Charge          ....    0
 Multiplicity           Mult            ....    1
 Number of Electrons    NEL             ....   64
 Basis Dimension        Dim             ....  222

ORBITAL ENERGIES
----------------

  NO   OCC          E(Eh)            E(eV)
   0   2.0000     -18.999658      -517.0070
   1   2.0000     -18.927335      -515.0390
   2   2.0000     -10.152679      -276.2684
   3   2.0000     -10.087447      -274.4934
   4   2.0000     -10.043114      -273.2870
   5   2.0000     -10.033304      -273.0201
   6   2.0000     -10.028299      -272.8839
   7   2.0000     -10.015844      -272.5450
   8   2.0000      -1.074165       -29.2295
   9   2.0000      -0.974355       -26.5135
  10   2.0000      -0.780210       -21.2306
  11   2.0000      -0.724295       -19.7091
  12   2.0000      -0.684462       -18.6252
  13   2.0000      -0.625841       -17.0300
  14   2.0000      -0.550383       -14.9767
  15   2.0000      -0.534053       -14.5323
  16   2.0000      -0.471913       -12.8414
  17   2.0000      -0.463130       -12.6024
  18   2.0000      -0.436344       -11.8735
  19   2.0000      -0.429473       -11.6865
  20   2.0000      -0.411063       -11.1856
  21   2.0000      -0.391039       -10.6407
  22   2.0000      -0.376672       -10.2498
  23   2.0000      -0.370630       -10.0854
  24   2.0000      -0.350988        -9.5509
  25   2.0000      -0.338439        -9.2094
  26   2.0000      -0.325202        -8.8492
  27   2.0000      -0.308052        -8.3825
  28   2.0000      -0.299619        -8.1530
  29   2.0000      -0.292829        -7.9683
  30   2.0000      -0.273598        -7.4450
  31   2.0000      -0.232300        -6.3212
  32   0.0000      -0.015276        -0.4157
  33   0.0000       0.063712         1.7337
  34   0.0000       0.089325         2.4307
  35   0.0000       0.099950         2.7198
  36   0.0000       0.121147         3.2966

MULLIKEN ATOMIC CHARGES
-----------------------
   0 C :   -0.486637
   1 C :   -0.262649
   2 C :   -0.232928
   3 C :   -0.347876
   4 C :    0.330368
   5 O :   -0.415577
   6 O :   -0.169553
   7 C :   -0.289783
   8 H :    0.151341
   9 H :    0.148138
  10 H :    0.168328
  11 H :    0.139733
  12 H :    0.144218
  13 H :    0.159338
  14 H :    0.145139
  15 H :    0.166886
  16 H :    0.176801
  17 H :    0.149948
  18 H :    0.163585
  19 H :    0.161180
Sum of atomic charges:    0.0000000

LOEWDIN ATOMIC CHARGES
----------------------
   0 C :   -0.417814
   1 C :   -0.309170
   2 C :   -0.290493
   3 C :   -0.227356
   4 C :    0.339593
   5 O :   -0.432626
   6 O :   -0.613353
   7 C :   -0.044607
   8 H :    0.152484
   9 H :    0.150815
  10 H :    0.165257
  11 H :    0.152916
  12 H :    0.153013
  13 H :    0.170377
  14 H :    0.156245
  15 H :    0.183904
  16 H :    0.180011
  17 H :    0.175750
  18 H :    0.178549
  19 H :    0.176506

  Mayer bond orders larger than 0.100000
B(  0-C ,  1-C ) :   0.8900 B(  0-C ,  8-H ) :   0.9806 B(  0-C ,  9-H ) :   0.9649
B(  0-C , 10-H ) :   0.9620 B(  1-C ,  2-C ) :   0.9268 B(  1-C , 11-H ) :   0.9901
B(  1-C , 12-H ) :   0.9591 B(  2-C ,  3-C ) :   0.8594 B(  2-C , 13-H ) :   0.9754
B(  2-C , 14-H ) :   0.9617 B(  3-C ,  4-C ) :   0.9679 B(  3-C , 15-H ) :   0.9260
B(  3-C , 16-H ) :   1.0090 B(  4-C ,  5-O ) :   1.8322 B(  4-C ,  6-O ) :   1.0347
B(  6-O ,  7-C ) :   0.8519 B(  7-C , 17-H ) :   0.9696 B(  7-C , 18-H ) :   0.9630
B(  7-C , 19-H ) :   0.9616

Dispersion correction           -0.005581047
FINAL SINGLE POINT ENERGY      -386.229612508187

DIPOLE MOMENT
-------------

Method             : SCF
Type of density    : Electron Density
Multiplicity       :   1
Irrep              :   0
Energy             :  -386.2361453542117715 Eh
Relativity type    :
Basis              : AO
                                X                 Y                 Z
Electronic contribution:      5.920394247       2.940928044      -1.241638844
Nuclear contribution   :     -6.063637949      -3.281330794       2.016547257
                        -----------------------------------------
Total Dipole Moment    :     -0.143243702      -0.340402750       0.774908412
                        -----------------------------------------
Magnitude (a.u.)       :      0.858414724
Magnitude (Debye)      :      2.181916828

Rotational constants in cm-1:             0.098982             0.045704             0.041643
Rotational constants in MHz :          2967.416267          1370.165034          1248.411446

                             ****ORCA TERMINATED NORMALLY****
TOTAL RUN TIME: 0 days 0 hours 0 minutes 26 seconds 446 msec
