                         Program Version 6.0.0  -   RELEASE  -
|  1> ! r2scan-3c def2/J RI DEFGRID2 scfconv6 printgap
|  2> %output
|  3>     printlevel normal
|  4> end
|  5> %cpcm
|  6>     smd true
|  7>     smdsolvent "water"
|  8> end
|  9> * xyz 0 1
| 10> C -1.7759185348 -1.2069944982 -0.5657167594
| 11> C -2.3607318639 -0.0621396956 0.2523254221
| 12> C -1.3334086856 0.6306057942 1.1473498326
| 13> C -0.2610550771 1.3937499283 0.3624379739
| 14> C 0.7787660989 0.5141380055 -0.2792223066
| 15> O 1.1968492347 0.6557146703 -1.4120137305
| 16> O 1.2399872277 -0.4166784528 0.547736647
| 17> C 2.2519269828 -1.2939535081 0.0525794538
| 18> H -1.2954353431 -1.9339729778 0.0856485902
| 19> H -2.5603949953 -1.7109365916 -1.1252571988
| 20> H -1.0398721717 -0.8406655076 -1.2789061741
| 21> H -2.8051730478 0.6727081443 -0.422253813
| 22> H -3.1576135004 -0.4550359185 0.8868549931
| 23> H -0.8490116501 -0.1051149853 1.7901406078
| 24> H -1.8566197707 1.3460084487 1.7833520028
| 25> H 0.279634459 2.0499049811 1.0484238433
| 26> H -0.7102442027 2.0079001525 -0.4188298419
| 27> H 2.5250214247 -1.9290979975 0.8893639561
| 28> H 3.1083384001 -0.7173876588 -0.2995896044
| 29> H 1.8595709047 -1.8856870482 -0.7758318891
| 30> *
| 31>
| 32>                          ****END OF INPUT****

CARTESIAN COORDINATES (ANGSTROEM)
---------------------------------
  C     -1.775919   -1.206994   -0.565717
  C     -2.360732   -0.062140    0.252325
  C     -1.333409    0.630606    1.147350
  C     -0.261055    1.393750    0.362438
  C      0.778766    0.514138   -0.279222
  O      1.196849    0.655715   -1.412014
  O      1.239987   -0.416678    0.547737
  C      2.251927   -1.293954    0.052579
  H     -1.295435   -1.933973    0.085649
  H     -2.560395   -1.710937   -1.125257
  H     -1.039872   -0.840666   -1.278906
  H     -2.805173    0.672708   -0.422254
  H     -3.157614   -0.455036    0.886855
  H     -0.849012   -0.105115    1.790141
  H     -1.856620    1.346008    1.783352
  H      0.279634    2.049905    1.048424
  H     -0.710244    2.007900   -0.418830
  H      2.525021   -1.929098    0.889364
  H      3.108338   -0.717388   -0.299590
  H      1.859571   -1.885687   -0.775832

 Total Charge           Charge          ....    0
 Multiplicity           Mult            ....    1
 Number of Electrons    NEL             ....   64
 Basis Dimension        Dim             ....  222

ORBITAL ENERGIES
----------------

  NO   OCC          E(Eh)            E(eV)
   0   2.0000     -19.004074      -517.1271
   1   2.0000     -18.942640      -515.4554
   2   2.0000     -10.162482      -276.5352
   3   2.0000     -10.076874      -274.2057
   4   2.0000     -10.036563      -273.1088
   5   2.0000     -10.024516      -272.7809
   6   2.0000     -10.018721      -272.6232
   7   2.0000     -10.009287      -272.3665
   8   2.0000      -1.080213       -29.3941
   9   2.0000      -0.987575       -26.8733
  10   2.0000      -0.773548       -21.0493
  11   2.0000      -0.719031       -19.5658
  12   2.0000      -0.677699       -18.4411
  13   2.0000      -0.619377       -16.8541
  14   2.0000      -0.544230       -14.8093
  15   2.0000      -0.530378       -14.4323
  16   2.0000      -0.469996       -12.7892
  17   2.0000      -0.462000       -12.5717
  18   2.0000      -0.450090       -12.2476
  19   2.0000      -0.421853       -11.4792
  20   2.0000      -0.405009       -11.0209
  21   2.0000      -0.383978       -10.4486
  22   2.0000      -0.372827       -10.1451
  23   2.0000      -0.367676       -10.0050
  24   2.0000      -0.349192        -9.5020
  25   2.0000      -0.331414        -9.0182
  26   2.0000      -0.325481        -8.8568
  27   2.0000      -0.301688        -8.2093
  28   2.0000      -0.292710        -7.9651
  29   2.0000      -0.285864        -7.7788
  30   2.0000      -0.279602        -7.6083
  31   2.0000      -0.247577        -6.7369
  32   0.0000      -0.022716        -0.6181
  33   0.0000       0.069483         1.8907
  34   0.0000       0.096887         2.6364
  35   0.0000       0.110102         2.9960
  36   0.0000       0.129112         3.5133

MULLIKEN ATOMIC CHARGES
-----------------------
   0 C :   -0.518166
   1 C :   -0.272232
   2 C :   -0.241551
   3 C :   -0.366437
   4 C :    0.374406
   5 O :   -0.504097
   6 O :   -0.184056
   7 C :   -0.324954
   8 H :    0.163869
   9 H :    0.160309
  10 H :    0.161934
  11 H :    0.151393
  12 H :    0.155412
  13 H :    0.161146
  14 H :    0.161963
  15 H :    0.199416
  16 H :    0.186308
  17 H :    0.178681
  18 H :    0.177187
  19 H :    0.179471
Sum of atomic charges:    0.0000000

LOEWDIN ATOMIC CHARGES
----------------------
   0 C :   -0.423912
   1 C :   -0.310554
   2 C :   -0.287916
   3 C :   -0.225536
   4 C :    0.348742
   5 O :   -0.496068
   6 O :   -0.613862
   7 C :   -0.042519
   8 H :    0.155710
   9 H :    0.153950
  10 H :    0.161918
  11 H :    0.156311
  12 H :    0.156527
  13 H :    0.170332
  14 H :    0.162809
  15 H :    0.196486
  16 H :    0.184084
  17 H :    0.188272
  18 H :    0.182859
  19 H :    0.182368

  Mayer bond orders larger than 0.100000
B(  0-C ,  1-C ) :   0.8778 B(  0-C ,  8-H ) :   0.9777 B(  0-C ,  9-H ) :   0.9626
B(  0-C , 10-H ) :   0.9633 B(  1-C ,  2-C ) :   0.9216 B(  1-C , 11-H ) :   0.9900
B(  1-C , 12-H ) :   0.9584 B(  2-C ,  3-C ) :   0.8452 B(  2-C , 13-H ) :   0.9759
B(  2-C , 14-H ) :   0.9588 B(  3-C ,  4-C ) :   0.9705 B(  3-C , 15-H ) :   0.9163
B(  3-C , 16-H ) :   1.0046 B(  4-C ,  5-O ) :   1.7592 B(  4-C ,  6-O ) :   1.0624
B(  6-O ,  7-C ) :   0.8319 B(  7-C , 17-H ) :   0.9596 B(  7-C , 18-H ) :   0.9583
B(  7-C , 19-H ) :   0.9557

Dispersion correction           -0.005581047
FINAL SINGLE POINT ENERGY      -386.235015654460

DIPOLE MOMENT
-------------

Method             : SCF
Type of density    : Electron Density
Multiplicity       :   1
Irrep              :   0
Energy             :  -386.2415485004844982 Eh
Relativity type    :
Basis              : AO
                                X                 Y                 Z
Electronic contribution:      5.825541862       2.861556548      -0.890340734
Nuclear contribution   :     -6.063637949      -3.281330794       2.016547257
                        -----------------------------------------
Total Dipole Moment    :     -0.238096087      -0.419774246       1.126206522
                        -----------------------------------------
Magnitude (a.u.)       :      1.225251524
Magnitude (Debye)      :      3.114341872

Rotational constants in cm-1:             0.098982             0.045704             0.041643
Rotational constants in MHz :          2967.416267          1370.165034          1248.411446

                             ****ORCA TERMINATED NORMALLY****
TOTAL RUN TIME: 0 days 0 hours 0 minutes 34 seconds 729 msec
