                         Program Version 6.0.0  -   RELEASE  -
|  1> ! pbe def2-sv(p) def2/J RI DEFGRID1 loosescf d4 GCP(DFT/SV(P)) printgap
|  2> %output
|  3>     printlevel normal
|  4> end
|  5> * xyz 0 1
|  6> C 1.6459891377 -0.7753908059 -0.5134683844
|  7> C 1.367386456 0.552438403 0.1826274077
|  8> C -0.0065792209 0.6285968097 0.8520196721
|  9> C -1.1979128235 0.5411775381 -0.1233931461
| 10> N -1.737810327 -0.7890809013 -0.3611708707
| 11> H 1.4984225975 -1.6067441085 0.1732462553
| 12> H 0.995213496 -0.9075155687 -1.374567272
| 13> H 2.6746609907 -0.8040475035 -0.8657396368
| 14> H 2.1291856136 0.7151187906 0.9492730992
| 15> H 1.4533277384 1.3640519958 -0.5434809824
| 16> H -0.0949737724 -0.1706747642 1.5934535603
| 17> H -0.0663488755 1.5780308186 1.3879337633
| 18> H -0.9098252622 0.9594135783 -1.0914582999
| 19> H -2.0233546869 1.1443575427 0.2650651173
| 20> H -2.0451116576 -1.1915279834 0.5180630337
| 21> H -1.0172011449 -1.3978146382 -0.7329814128
| 22> *
| 23>
| 24>                          ****END OF INPUT****

CARTESIAN COORDINATES (ANGSTROEM)
---------------------------------
  C      1.645989   -0.775391   -0.513468
  C      1.367386    0.552438    0.182627
  C     -0.006579    0.628597    0.852020
  C     -1.197913    0.541178   -0.123393
  N     -1.737810   -0.789081   -0.361171
  H      1.498423   -1.606744    0.173246
  H      0.995213   -0.907516   -1.374567
  H      2.674661   -0.804048   -0.865740
  H      2.129186    0.715119    0.949273
  H      1.453328    1.364052   -0.543481
  H     -0.094974   -0.170675    1.593454
  H     -0.066349    1.578031    1.387934
  H     -0.909825    0.959414   -1.091458
  H     -2.023355    1.144358    0.265065
  H     -2.045112   -1.191528    0.518063
  H     -1.017201   -1.397815   -0.732981

 Total Charge           Charge          ....    0
 Multiplicity           Mult            ....    1
 Number of Electrons    NEL             ....   42
 Basis Dimension        Dim             ....   92

ORBITAL ENERGIES
----------------

  NO   OCC          E(Eh)            E(eV)
   0   2.0000     -13.951944      -379.6517
   1   2.0000      -9.901980      -269.4466
   2   2.0000      -9.885092      -268.9870
   3   2.0000      -9.878789      -268.8155
   4   2.0000      -9.878052      -268.7955
   5   2.0000      -0.790080       -21.4992
   6   2.0000      -0.705913       -19.2089
   7   2.0000      -0.631275       -17.1779
   8   2.0000      -0.559542       -15.2259
   9   2.0000      -0.508135       -13.8270
  10   2.0000      -0.446943       -12.1619
  11   2.0000      -0.412367       -11.2211
  12   2.0000      -0.395497       -10.7620
  13   2.0000      -0.370322       -10.0770
  14   2.0000      -0.357228        -9.7207
  15   2.0000      -0.335502        -9.1295
  16   2.0000      -0.321406        -8.7459
  17   2.0000      -0.300477        -8.1764
  18   2.0000      -0.288037        -7.8379
  19   2.0000      -0.277016        -7.5380
  20   2.0000      -0.176085        -4.7915
  21   0.0000       0.030609         0.8329
  22   0.0000       0.057468         1.5638
  23   0.0000       0.062434         1.6989
  24   0.0000       0.072636         1.9765
  25   0.0000       0.094516         2.5719

MULLIKEN ATOMIC CHARGES
-----------------------
   0 C :   -0.304330
   1 C :   -0.187315
   2 C :   -0.169936
   3 C :   -0.090538
   4 N :   -0.452783
   5 H :    0.098186
   6 H :    0.113471
   7 H :    0.105826
   8 H :    0.087013
   9 H :    0.089188
  10 H :    0.068377
  11 H :    0.077490
  12 H :    0.087123
  13 H :    0.083692
  14 H :    0.197640
  15 H :    0.196896
Sum of atomic charges:   -0.0000000

LOEWDIN ATOMIC CHARGES
----------------------
   0 C :   -0.347145
   1 C :   -0.234524
   2 C :   -0.252533
   3 C :   -0.182354
   4 N :   -0.408281
   5 H :    0.115112
   6 H :    0.115281
   7 H :    0.121104
   8 H :    0.115257
   9 H :    0.114706
  10 H :    0.107289
  11 H :    0.116172
  12 H :    0.111311
  13 H :    0.112673
  14 H :    0.199580
  15 H :    0.196351

  Mayer bond orders larger than 0.100000
B(  0-C ,  1-C ) :   1.1509 B(  0-C ,  5-H ) :   0.9534 B(  0-C ,  6-H ) :   0.9421
B(  0-C ,  7-H ) :   0.9492 B(  1-C ,  2-C ) :   1.1353 B(  1-C ,  8-H ) :   0.9282
B(  1-C ,  9-H ) :   0.9265 B(  2-C ,  3-C ) :   1.0595 B(  2-C , 10-H ) :   0.9262
B(  2-C , 11-H ) :   0.9130 B(  3-C ,  4-N ) :   1.1518 B(  3-C , 12-H ) :   0.9352
B(  3-C , 13-H ) :   0.9362 B(  4-N , 14-H ) :   0.9087 B(  4-N , 15-H ) :   0.9085

Dispersion correction           -0.010637334
FINAL SINGLE POINT ENERGY      -213.242123270380

DIPOLE MOMENT
-------------

Method             : SCF
Type of density    : Electron Density
Multiplicity       :   1
Irrep              :   0
Energy             :  -213.3024327549128429 Eh
Relativity type    :
Basis              : AO
                                X                 Y                 Z
Electronic contribution:     -1.995897014       0.222467902       0.080411417
Nuclear contribution   :      2.424092428      -0.302039308       0.259592881
                        -----------------------------------------
Total Dipole Moment    :      0.428195414      -0.079571405       0.340004298
                        -----------------------------------------
Magnitude (a.u.)       :      0.552526781
Magnitude (Debye)      :      1.404411467

Rotational constants in cm-1:             0.251057             0.108802             0.085824
Rotational constants in MHz :          7526.502237          3261.797770          2572.926618

                             ****ORCA TERMINATED NORMALLY****
TOTAL RUN TIME: 0 days 0 hours 0 minutes 7 seconds 859 msec
