                         Program Version 6.0.0  -   RELEASE  -
|  1> ! r2scan-3c def2/J RI DEFGRID2 scfconv6 printgap
|  2> %output
|  3>     printlevel normal
|  4> end
|  5> * xyz 0 1
|  6> C -2.5464914177 -0.6354520042 1.0637697158
|  7> C -2.0814759141 -0.8017211927 -0.3778200775
|  8> C -1.3838935725 0.4612168698 -0.8991418766
|  9> C -0.108957274 0.7289302962 -0.1415718134
| 10> O 0.1008847461 1.7102855817 0.5432977994
| 11> O 0.7762598975 -0.2419050051 -0.3111452758
| 12> C 2.0454703762 -0.1303926361 0.3528809088
| 13> C 3.0252725212 -1.0642444311 -0.3317145656
| 14> H -3.0281235659 -1.5440179928 1.4151523288
| 15> H -1.7037921636 -0.4161616894 1.7171472353
| 16> H -3.2551017744 0.1855617156 1.1437979697
| 17> H -2.9413567614 -1.0104414637 -1.0150275235
| 18> H -1.3896503722 -1.6419817576 -0.449825269
| 19> H -2.0322574292 1.3304779634 -0.7905299493
| 20> H -1.1266272808 0.3247996711 -1.9499073205
| 21> H 2.3719603029 0.9137604301 0.3052496643
| 22> H 1.9044455754 -0.398800595 1.4049904081
| 23> H 3.145101813 -0.782148245 -1.3736693431
| 24> H 3.9864658028 -1.0047289807 0.1679709663
| 25> H 2.6587425693 -2.08529289 -0.2851011361
| 26> *
| 27>
| 28>                          ****END OF INPUT****

CARTESIAN COORDINATES (ANGSTROEM)
---------------------------------
  C     -2.546491   -0.635452    1.063770
  C     -2.081476   -0.801721   -0.377820
  C     -1.383894    0.461217   -0.899142
  C     -0.108957    0.728930   -0.141572
  O      0.100885    1.710286    0.543298
  O      0.776260   -0.241905   -0.311145
  C      2.045470   -0.130393    0.352881
  C      3.025273   -1.064244   -0.331715
  H     -3.028124   -1.544018    1.415152
  H     -1.703792   -0.416162    1.717147
  H     -3.255102    0.185562    1.143798
  H     -2.941357   -1.010441   -1.015028
  H     -1.389650   -1.641982   -0.449825
  H     -2.032257    1.330478   -0.790530
  H     -1.126627    0.324800   -1.949907
  H      2.371960    0.913760    0.305250
  H      1.904446   -0.398801    1.404990
  H      3.145102   -0.782148   -1.373669
  H      3.986466   -1.004729    0.167971
  H      2.658743   -2.085293   -0.285101

 Total Charge           Charge          ....    0
 Multiplicity           Mult            ....    1
 Number of Electrons    NEL             ....   64
 Basis Dimension        Dim             ....  222

ORBITAL ENERGIES
----------------

  NO   OCC          E(Eh)            E(eV)
   0   2.0000     -18.996433      -516.9192
   1   2.0000     -18.925930      -515.0007
   2   2.0000     -10.150146      -276.1995
   3   2.0000     -10.091697      -274.6090
   4   2.0000     -10.040491      -273.2157
   5   2.0000     -10.036689      -273.1122
   6   2.0000     -10.032525      -272.9989
   7   2.0000     -10.019622      -272.6478
   8   2.0000      -1.071713       -29.1628
   9   2.0000      -0.972900       -26.4739
  10   2.0000      -0.776112       -21.1191
  11   2.0000      -0.741757       -20.1842
  12   2.0000      -0.677676       -18.4405
  13   2.0000      -0.616276       -16.7697
  14   2.0000      -0.569586       -15.4992
  15   2.0000      -0.533518       -14.5178
  16   2.0000      -0.472729       -12.8636
  17   2.0000      -0.450441       -12.2571
  18   2.0000      -0.440757       -11.9936
  19   2.0000      -0.424401       -11.5485
  20   2.0000      -0.410726       -11.1764
  21   2.0000      -0.381187       -10.3726
  22   2.0000      -0.376420       -10.2429
  23   2.0000      -0.370775       -10.0893
  24   2.0000      -0.355449        -9.6723
  25   2.0000      -0.336170        -9.1476
  26   2.0000      -0.325736        -8.8637
  27   2.0000      -0.312530        -8.5044
  28   2.0000      -0.309487        -8.4216
  29   2.0000      -0.309092        -8.4108
  30   2.0000      -0.270530        -7.3615
  31   2.0000      -0.230306        -6.2670
  32   0.0000      -0.014393        -0.3917
  33   0.0000       0.071316         1.9406
  34   0.0000       0.094832         2.5805
  35   0.0000       0.114687         3.1208
  36   0.0000       0.119773         3.2592

MULLIKEN ATOMIC CHARGES
-----------------------
   0 C :   -0.480403
   1 C :   -0.230315
   2 C :   -0.314071
   3 C :    0.352353
   4 O :   -0.420630
   5 O :   -0.164276
   6 C :   -0.146702
   7 C :   -0.442504
   8 H :    0.147199
   9 H :    0.155488
  10 H :    0.149176
  11 H :    0.145766
  12 H :    0.152236
  13 H :    0.168988
  14 H :    0.158085
  15 H :    0.170394
  16 H :    0.147916
  17 H :    0.152853
  18 H :    0.147103
  19 H :    0.151343
Sum of atomic charges:    0.0000000

LOEWDIN ATOMIC CHARGES
----------------------
   0 C :   -0.414970
   1 C :   -0.293320
   2 C :   -0.231149
   3 C :    0.350117
   4 O :   -0.428295
   5 O :   -0.602414
   6 C :    0.033750
   7 C :   -0.386878
   8 H :    0.151603
   9 H :    0.156390
  10 H :    0.153417
  11 H :    0.153132
  12 H :    0.163383
  13 H :    0.177327
  14 H :    0.178966
  15 H :    0.186577
  16 H :    0.174996
  17 H :    0.159118
  18 H :    0.159534
  19 H :    0.158718

  Mayer bond orders larger than 0.100000
B(  0-C ,  1-C ) :   0.9137 B(  0-C ,  8-H ) :   0.9704 B(  0-C ,  9-H ) :   0.9706
B(  0-C , 10-H ) :   0.9780 B(  1-C ,  2-C ) :   0.8845 B(  1-C , 11-H ) :   0.9642
B(  1-C , 12-H ) :   0.9737 B(  2-C ,  3-C ) :   0.9576 B(  2-C , 13-H ) :   1.0034
B(  2-C , 14-H ) :   0.9467 B(  3-C ,  4-O ) :   1.8378 B(  3-C ,  5-O ) :   1.0537
B(  5-O ,  6-C ) :   0.7967 B(  6-C ,  7-C ) :   0.9459 B(  6-C , 15-H ) :   0.9625
B(  6-C , 16-H ) :   0.9455 B(  7-C , 17-H ) :   0.9748 B(  7-C , 18-H ) :   0.9679
B(  7-C , 19-H ) :   0.9691

Dispersion correction           -0.005093611
FINAL SINGLE POINT ENERGY      -386.235474741387

DIPOLE MOMENT
-------------

Method             : SCF
Type of density    : Electron Density
Multiplicity       :   1
Irrep              :   0
Energy             :  -386.2420471317223587 Eh
Relativity type    :
Basis              : AO
                                X                 Y                 Z
Electronic contribution:      1.486523604       4.901046950      -0.631640009
Nuclear contribution   :     -1.309989931      -5.728225757       0.275743434
                        -----------------------------------------
Total Dipole Moment    :      0.176533673      -0.827178807      -0.355896575
                        -----------------------------------------
Magnitude (a.u.)       :      0.917633526
Magnitude (Debye)      :      2.332439061

Rotational constants in cm-1:             0.114671             0.037073             0.033399
Rotational constants in MHz :          3437.764417          1111.406157          1001.273234

                             ****ORCA TERMINATED NORMALLY****
TOTAL RUN TIME: 0 days 0 hours 0 minutes 30 seconds 827 msec
