                         Program Version 6.0.0  -   RELEASE  -
|  1> ! r2scan-3c def2/J RI DEFGRID2 scfconv6 printgap
|  2> %output
|  3>     printlevel normal
|  4> end
|  5> %cpcm
|  6>     smd true
|  7>     smdsolvent "water"
|  8> end
|  9> * xyz 0 1
| 10> C -2.5464914177 -0.6354520042 1.0637697158
| 11> C -2.0814759141 -0.8017211927 -0.3778200775
| 12> C -1.3838935725 0.4612168698 -0.8991418766
| 13> C -0.108957274 0.7289302962 -0.1415718134
| 14> O 0.1008847461 1.7102855817 0.5432977994
| 15> O 0.7762598975 -0.2419050051 -0.3111452758
| 16> C 2.0454703762 -0.1303926361 0.3528809088
| 17> C 3.0252725212 -1.0642444311 -0.3317145656
| 18> H -3.0281235659 -1.5440179928 1.4151523288
| 19> H -1.7037921636 -0.4161616894 1.7171472353
| 20> H -3.2551017744 0.1855617156 1.1437979697
| 21> H -2.9413567614 -1.0104414637 -1.0150275235
| 22> H -1.3896503722 -1.6419817576 -0.449825269
| 23> H -2.0322574292 1.3304779634 -0.7905299493
| 24> H -1.1266272808 0.3247996711 -1.9499073205
| 25> H 2.3719603029 0.9137604301 0.3052496643
| 26> H 1.9044455754 -0.398800595 1.4049904081
| 27> H 3.145101813 -0.782148245 -1.3736693431
| 28> H 3.9864658028 -1.0047289807 0.1679709663
| 29> H 2.6587425693 -2.08529289 -0.2851011361
| 30> *
| 31>
| 32>                          ****END OF INPUT****

CARTESIAN COORDINATES (ANGSTROEM)
---------------------------------
  C     -2.546491   -0.635452    1.063770
  C     -2.081476   -0.801721   -0.377820
  C     -1.383894    0.461217   -0.899142
  C     -0.108957    0.728930   -0.141572
  O      0.100885    1.710286    0.543298
  O      0.776260   -0.241905   -0.311145
  C      2.045470   -0.130393    0.352881
  C      3.025273   -1.064244   -0.331715
  H     -3.028124   -1.544018    1.415152
  H     -1.703792   -0.416162    1.717147
  H     -3.255102    0.185562    1.143798
  H     -2.941357   -1.010441   -1.015028
  H     -1.389650   -1.641982   -0.449825
  H     -2.032257    1.330478   -0.790530
  H     -1.126627    0.324800   -1.949907
  H      2.371960    0.913760    0.305250
  H      1.904446   -0.398801    1.404990
  H      3.145102   -0.782148   -1.373669
  H      3.986466   -1.004729    0.167971
  H      2.658743   -2.085293   -0.285101

 Total Charge           Charge          ....    0
 Multiplicity           Mult            ....    1
 Number of Electrons    NEL             ....   64
 Basis Dimension        Dim             ....  222

ORBITAL ENERGIES
----------------

  NO   OCC          E(Eh)            E(eV)
   0   2.0000     -19.002176      -517.0755
   1   2.0000     -18.943228      -515.4714
   2   2.0000     -10.161860      -276.5183
   3   2.0000     -10.083809      -274.3944
   4   2.0000     -10.035433      -273.0780
   5   2.0000     -10.028773      -272.8968
   6   2.0000     -10.018721      -272.6233
   7   2.0000     -10.011741      -272.4333
   8   2.0000      -1.079394       -29.3718
   9   2.0000      -0.987883       -26.8817
  10   2.0000      -0.771447       -20.9921
  11   2.0000      -0.733582       -19.9618
  12   2.0000      -0.671959       -18.2849
  13   2.0000      -0.609562       -16.5870
  14   2.0000      -0.563571       -15.3356
  15   2.0000      -0.531762       -14.4700
  16   2.0000      -0.471500       -12.8302
  17   2.0000      -0.454592       -12.3701
  18   2.0000      -0.447771       -12.1845
  19   2.0000      -0.421054       -11.4575
  20   2.0000      -0.406223       -11.0539
  21   2.0000      -0.375791       -10.2258
  22   2.0000      -0.372988       -10.1495
  23   2.0000      -0.363415        -9.8890
  24   2.0000      -0.349496        -9.5103
  25   2.0000      -0.330931        -9.0051
  26   2.0000      -0.319842        -8.7033
  27   2.0000      -0.311613        -8.4794
  28   2.0000      -0.306620        -8.3436
  29   2.0000      -0.302353        -8.2274
  30   2.0000      -0.276061        -7.5120
  31   2.0000      -0.247329        -6.7302
  32   0.0000      -0.023484        -0.6390
  33   0.0000       0.075759         2.0615
  34   0.0000       0.103794         2.8244
  35   0.0000       0.123878         3.3709
  36   0.0000       0.126646         3.4462

MULLIKEN ATOMIC CHARGES
-----------------------
   0 C :   -0.527595
   1 C :   -0.222558
   2 C :   -0.334780
   3 C :    0.393839
   4 O :   -0.510345
   5 O :   -0.178176
   6 C :   -0.146794
   7 C :   -0.489683
   8 H :    0.161793
   9 H :    0.161504
  10 H :    0.163187
  11 H :    0.163476
  12 H :    0.156164
  13 H :    0.178584
  14 H :    0.187343
  15 H :    0.172466
  16 H :    0.172881
  17 H :    0.165801
  18 H :    0.168557
  19 H :    0.164335
Sum of atomic charges:    0.0000000

LOEWDIN ATOMIC CHARGES
----------------------
   0 C :   -0.423089
   1 C :   -0.289693
   2 C :   -0.229166
   3 C :    0.359551
   4 O :   -0.492181
   5 O :   -0.601804
   6 C :    0.036788
   7 C :   -0.389902
   8 H :    0.156433
   9 H :    0.156012
  10 H :    0.156161
  11 H :    0.160277
  12 H :    0.164576
  13 H :    0.181219
  14 H :    0.190490
  15 H :    0.187922
  16 H :    0.183622
  17 H :    0.162228
  18 H :    0.168164
  19 H :    0.162394

  Mayer bond orders larger than 0.100000
B(  0-C ,  1-C ) :   0.8976 B(  0-C ,  8-H ) :   0.9662 B(  0-C ,  9-H ) :   0.9695
B(  0-C , 10-H ) :   0.9770 B(  1-C ,  2-C ) :   0.8764 B(  1-C , 11-H ) :   0.9610
B(  1-C , 12-H ) :   0.9726 B(  2-C ,  3-C ) :   0.9565 B(  2-C , 13-H ) :   0.9989
B(  2-C , 14-H ) :   0.9374 B(  3-C ,  4-O ) :   1.7627 B(  3-C ,  5-O ) :   1.0852
B(  5-O ,  6-C ) :   0.7836 B(  6-C ,  7-C ) :   0.9451 B(  6-C , 15-H ) :   0.9570
B(  6-C , 16-H ) :   0.9367 B(  7-C , 17-H ) :   0.9733 B(  7-C , 18-H ) :   0.9616
B(  7-C , 19-H ) :   0.9662

Dispersion correction           -0.005093611
FINAL SINGLE POINT ENERGY      -386.241181485251

DIPOLE MOMENT
-------------

Method             : SCF
Type of density    : Electron Density
Multiplicity       :   1
Irrep              :   0
Energy             :  -386.2477538755857154 Eh
Relativity type    :
Basis              : AO
                                X                 Y                 Z
Electronic contribution:      1.510571596       4.577821103      -0.804879061
Nuclear contribution   :     -1.309989931      -5.728225757       0.275743434
                        -----------------------------------------
Total Dipole Moment    :      0.200581665      -1.150404654      -0.529135628
                        -----------------------------------------
Magnitude (a.u.)       :      1.282048511
Magnitude (Debye)      :      3.258708342

Rotational constants in cm-1:             0.114671             0.037073             0.033399
Rotational constants in MHz :          3437.764417          1111.406157          1001.273234

                             ****ORCA TERMINATED NORMALLY****
TOTAL RUN TIME: 0 days 0 hours 0 minutes 37 seconds 352 msec
