                         Program Version 6.0.0  -   RELEASE  -
|  1> ! pbe def2-sv(p) def2/J RI DEFGRID1 loosescf d4 GCP(DFT/SV(P)) printgap
|  2> %output
|  3>     printlevel normal
|  4> end
|  5> * xyz 0 1
|  6> C -3.4481997542 -0.4780004123 -0.4189021512
|  7> C -2.7017558716 0.1886625385 0.7308018969
|  8> C -1.289335769 0.6359526855 0.3551017073
|  9> C -0.3528643153 -0.5441412707 0.065249313
| 10> C 1.0129718491 -0.0350362975 -0.3052959335
| 11> O 1.2598007694 0.6677589493 -1.2633606553
| 12> O 1.9408280484 -0.4332108629 0.5586401328
| 13> C 3.2866061586 -0.0060044422 0.3305598732
| 14> H -3.4559823375 0.1697309497 -1.2925321901
| 15> H -2.9861539754 -1.422395078 -0.6930777865
| 16> H -4.4770187057 -0.6779537946 -0.1305744294
| 17> H -3.2610166708 1.0699511471 1.0504119139
| 18> H -2.6490415376 -0.4969235217 1.5784404457
| 19> H -0.8714648116 1.2210671779 1.1773687483
| 20> H -1.3250301125 1.2785040296 -0.527110392
| 21> H -0.7376170294 -1.1124999265 -0.781792086
| 22> H -0.2645032449 -1.1918847975 0.9363062921
| 23> H 3.6167249005 -0.3271889509 -0.6579719904
| 24> H 3.8784337854 -0.4719930347 1.1118227368
| 25> H 3.3464509432 1.0813416996 0.3882448016
| 26> *
| 27>
| 28>                          ****END OF INPUT****

CARTESIAN COORDINATES (ANGSTROEM)
---------------------------------
  C     -3.448200   -0.478000   -0.418902
  C     -2.701756    0.188663    0.730802
  C     -1.289336    0.635953    0.355102
  C     -0.352864   -0.544141    0.065249
  C      1.012972   -0.035036   -0.305296
  O      1.259801    0.667759   -1.263361
  O      1.940828   -0.433211    0.558640
  C      3.286606   -0.006004    0.330560
  H     -3.455982    0.169731   -1.292532
  H     -2.986154   -1.422395   -0.693078
  H     -4.477019   -0.677954   -0.130574
  H     -3.261017    1.069951    1.050412
  H     -2.649042   -0.496924    1.578440
  H     -0.871465    1.221067    1.177369
  H     -1.325030    1.278504   -0.527110
  H     -0.737617   -1.112500   -0.781792
  H     -0.264503   -1.191885    0.936306
  H      3.616725   -0.327189   -0.657972
  H      3.878434   -0.471993    1.111823
  H      3.346451    1.081342    0.388245

 Total Charge           Charge          ....    0
 Multiplicity           Mult            ....    1
 Number of Electrons    NEL             ....   64
 Basis Dimension        Dim             ....  136

ORBITAL ENERGIES
----------------

  NO   OCC          E(Eh)            E(eV)
   0   2.0000     -18.797879      -511.5163
   1   2.0000     -18.730872      -509.6929
   2   2.0000     -10.001088      -272.1434
   3   2.0000      -9.939600      -270.4703
   4   2.0000      -9.894480      -269.2425
   5   2.0000      -9.890785      -269.1419
   6   2.0000      -9.887585      -269.0549
   7   2.0000      -9.876462      -268.7522
   8   2.0000      -1.003401       -27.3039
   9   2.0000      -0.906453       -24.6658
  10   2.0000      -0.731479       -19.9046
  11   2.0000      -0.684769       -18.6335
  12   2.0000      -0.643982       -17.5236
  13   2.0000      -0.585472       -15.9315
  14   2.0000      -0.518244       -14.1021
  15   2.0000      -0.501119       -13.6361
  16   2.0000      -0.449880       -12.2418
  17   2.0000      -0.436939       -11.8897
  18   2.0000      -0.421331       -11.4650
  19   2.0000      -0.407391       -11.0857
  20   2.0000      -0.396219       -10.7817
  21   2.0000      -0.372775       -10.1437
  22   2.0000      -0.364783        -9.9262
  23   2.0000      -0.353599        -9.6219
  24   2.0000      -0.329631        -8.9697
  25   2.0000      -0.324657        -8.8344
  26   2.0000      -0.305744        -8.3197
  27   2.0000      -0.291622        -7.9354
  28   2.0000      -0.288797        -7.8586
  29   2.0000      -0.284717        -7.7475
  30   2.0000      -0.256155        -6.9703
  31   2.0000      -0.215863        -5.8739
  32   0.0000      -0.017539        -0.4773
  33   0.0000       0.038251         1.0409
  34   0.0000       0.057584         1.5669
  35   0.0000       0.066691         1.8147
  36   0.0000       0.072216         1.9651

MULLIKEN ATOMIC CHARGES
-----------------------
   0 C :   -0.299039
   1 C :   -0.144209
   2 C :   -0.208521
   3 C :   -0.139914
   4 C :    0.106218
   5 O :   -0.216138
   6 O :   -0.236570
   7 C :   -0.108950
   8 H :    0.103766
   9 H :    0.109229
  10 H :    0.105323
  11 H :    0.088695
  12 H :    0.082208
  13 H :    0.090979
  14 H :    0.104017
  15 H :    0.113579
  16 H :    0.090485
  17 H :    0.119318
  18 H :    0.120860
  19 H :    0.118665
Sum of atomic charges:    0.0000000

LOEWDIN ATOMIC CHARGES
----------------------
   0 C :   -0.343593
   1 C :   -0.233579
   2 C :   -0.218956
   3 C :   -0.246404
   4 C :    0.036076
   5 O :   -0.173542
   6 O :   -0.074339
   7 C :   -0.204292
   8 H :    0.119750
   9 H :    0.116629
  10 H :    0.121282
  11 H :    0.118569
  12 H :    0.114480
  13 H :    0.118503
  14 H :    0.122850
  15 H :    0.139363
  16 H :    0.127530
  17 H :    0.120044
  18 H :    0.120226
  19 H :    0.119401

  Mayer bond orders larger than 0.100000
B(  0-C ,  1-C ) :   1.1542 B(  0-C ,  8-H ) :   0.9546 B(  0-C ,  9-H ) :   0.9505
B(  0-C , 10-H ) :   0.9513 B(  1-C ,  2-C ) :   1.1269 B(  1-C , 11-H ) :   0.9260
B(  1-C , 12-H ) :   0.9229 B(  2-C ,  3-C ) :   1.1244 B(  2-C , 13-H ) :   0.9253
B(  2-C , 14-H ) :   0.9173 B(  3-C ,  4-C ) :   1.0264 B(  3-C , 15-H ) :   0.8858
B(  3-C , 16-H ) :   0.9058 B(  4-C ,  5-O ) :   2.0495 B(  4-C ,  6-O ) :   1.2246
B(  6-O ,  7-C ) :   0.9392 B(  7-C , 17-H ) :   0.9506 B(  7-C , 18-H ) :   0.9592
B(  7-C , 19-H ) :   0.9531

Dispersion correction           -0.014833452
FINAL SINGLE POINT ENERGY      -385.452368323844

DIPOLE MOMENT
-------------

Method             : SCF
Type of density    : Electron Density
Multiplicity       :   1
Irrep              :   0
Energy             :  -385.5272594238242050 Eh
Relativity type    :
Basis              : AO
                                X                 Y                 Z
Electronic contribution:      8.653593642       0.516196221      -1.419973551
Nuclear contribution   :     -8.570745104      -0.822337783       2.015555106
                        -----------------------------------------
Total Dipole Moment    :      0.082848538      -0.306141563       0.595581555
                        -----------------------------------------
Magnitude (a.u.)       :      0.674762125
Magnitude (Debye)      :      1.715109020

Rotational constants in cm-1:             0.194652             0.027576             0.026389
Rotational constants in MHz :          5835.525486           826.700255           791.125189

                             ****ORCA TERMINATED NORMALLY****
TOTAL RUN TIME: 0 days 0 hours 0 minutes 9 seconds 432 msec
