                         Program Version 6.0.0  -   RELEASE  -
|  1> ! pbe def2-sv(p) def2/J RI DEFGRID1 loosescf d4 GCP(DFT/SV(P)) printgap
|  2> %output
|  3>     printlevel normal
|  4> end
|  5> * xyz 0 1
|  6> C -2.4003686163 -0.9020111731 0.9912726173
|  7> C -2.046426571 -0.7459608473 -0.4826723638
|  8> C -1.4344049234 0.6288119372 -0.7761986208
|  9> C -0.116449521 0.8107781541 -0.0684822028
| 10> O 0.1301024772 1.6984604661 0.7238740125
| 11> O 0.7666613586 -0.1140782294 -0.4142734428
| 12> C 2.0680755057 -0.0562529863 0.1915039894
| 13> C 2.8574729805 -1.2679341234 -0.2645698768
| 14> H -1.5147010311 -0.7859366797 1.6134923615
| 15> H -3.1234941614 -0.1475395276 1.2922760953
| 16> H -2.8265191721 -1.8840417078 1.1781823999
| 17> H -2.9470901648 -0.8603174327 -1.0865998459
| 18> H -1.3357836652 -1.5191165901 -0.7769003914
| 19> H -2.1032137284 1.4267040414 -0.453300942
| 20> H -1.2502114561 0.7223577887 -1.847304661
| 21> H 2.5483440656 0.879517111 -0.1134128967
| 22> H 1.9445208003 -0.0347285424 1.2795379029
| 23> H 2.9402973726 -1.2704498185 -1.3473247014
| 24> H 3.8503580796 -1.2341908342 0.1714419393
| 25> H 2.3583438832 -2.1793283821 0.0510544665
| 26> *
| 27>
| 28>                          ****END OF INPUT****

CARTESIAN COORDINATES (ANGSTROEM)
---------------------------------
  C     -2.400369   -0.902011    0.991273
  C     -2.046427   -0.745961   -0.482672
  C     -1.434405    0.628812   -0.776199
  C     -0.116450    0.810778   -0.068482
  O      0.130102    1.698460    0.723874
  O      0.766661   -0.114078   -0.414273
  C      2.068076   -0.056253    0.191504
  C      2.857473   -1.267934   -0.264570
  H     -1.514701   -0.785937    1.613492
  H     -3.123494   -0.147540    1.292276
  H     -2.826519   -1.884042    1.178182
  H     -2.947090   -0.860317   -1.086600
  H     -1.335784   -1.519117   -0.776900
  H     -2.103214    1.426704   -0.453301
  H     -1.250211    0.722358   -1.847305
  H      2.548344    0.879517   -0.113413
  H      1.944521   -0.034729    1.279538
  H      2.940297   -1.270450   -1.347325
  H      3.850358   -1.234191    0.171442
  H      2.358344   -2.179328    0.051054

 Total Charge           Charge          ....    0
 Multiplicity           Mult            ....    1
 Number of Electrons    NEL             ....   64
 Basis Dimension        Dim             ....  136

ORBITAL ENERGIES
----------------

  NO   OCC          E(Eh)            E(eV)
   0   2.0000     -18.797665      -511.5105
   1   2.0000     -18.728648      -509.6324
   2   2.0000     -10.003018      -272.1960
   3   2.0000      -9.947579      -270.6874
   4   2.0000      -9.896142      -269.2877
   5   2.0000      -9.893270      -269.2096
   6   2.0000      -9.890018      -269.1211
   7   2.0000      -9.877854      -268.7901
   8   2.0000      -1.004838       -27.3430
   9   2.0000      -0.905237       -24.6328
  10   2.0000      -0.730781       -19.8856
  11   2.0000      -0.698556       -19.0087
  12   2.0000      -0.636552       -17.3215
  13   2.0000      -0.581774       -15.8309
  14   2.0000      -0.535824       -14.5805
  15   2.0000      -0.507534       -13.8107
  16   2.0000      -0.450717       -12.2646
  17   2.0000      -0.437172       -11.8961
  18   2.0000      -0.415025       -11.2934
  19   2.0000      -0.401843       -10.9347
  20   2.0000      -0.391206       -10.6452
  21   2.0000      -0.364150        -9.9090
  22   2.0000      -0.363206        -9.8833
  23   2.0000      -0.354332        -9.6419
  24   2.0000      -0.341934        -9.3045
  25   2.0000      -0.322183        -8.7670
  26   2.0000      -0.313977        -8.5438
  27   2.0000      -0.299471        -8.1490
  28   2.0000      -0.297305        -8.0901
  29   2.0000      -0.294105        -8.0030
  30   2.0000      -0.255835        -6.9616
  31   2.0000      -0.211328        -5.7505
  32   0.0000      -0.018537        -0.5044
  33   0.0000       0.033344         0.9073
  34   0.0000       0.052119         1.4182
  35   0.0000       0.073245         1.9931
  36   0.0000       0.077852         2.1185

MULLIKEN ATOMIC CHARGES
-----------------------
   0 C :   -0.287013
   1 C :   -0.213284
   2 C :   -0.103307
   3 C :    0.082030
   4 O :   -0.208792
   5 O :   -0.244388
   6 C :   -0.028693
   7 C :   -0.271900
   8 H :    0.117281
   9 H :    0.103384
  10 H :    0.106141
  11 H :    0.093145
  12 H :    0.102705
  13 H :    0.096945
  14 H :    0.107417
  15 H :    0.104120
  16 H :    0.104919
  17 H :    0.114216
  18 H :    0.111026
  19 H :    0.114048
Sum of atomic charges:   -0.0000000

LOEWDIN ATOMIC CHARGES
----------------------
   0 C :   -0.342022
   1 C :   -0.230916
   2 C :   -0.242671
   3 C :    0.031153
   4 O :   -0.168754
   5 O :   -0.071168
   6 C :   -0.108105
   7 C :   -0.350806
   8 H :    0.120202
   9 H :    0.120452
  10 H :    0.120748
  11 H :    0.118392
  12 H :    0.119442
  13 H :    0.132134
  14 H :    0.137970
  15 H :    0.115770
  16 H :    0.115707
  17 H :    0.126320
  18 H :    0.130274
  19 H :    0.125877

  Mayer bond orders larger than 0.100000
B(  0-C ,  1-C ) :   1.1524 B(  0-C ,  8-H ) :   0.9486 B(  0-C ,  9-H ) :   0.9536
B(  0-C , 10-H ) :   0.9516 B(  1-C ,  2-C ) :   1.1085 B(  1-C , 11-H ) :   0.9266
B(  1-C , 12-H ) :   0.9233 B(  2-C ,  3-C ) :   1.0395 B(  2-C , 13-H ) :   0.9106
B(  2-C , 14-H ) :   0.8943 B(  3-C ,  4-O ) :   2.0594 B(  3-C ,  5-O ) :   1.1885
B(  5-O ,  6-C ) :   0.9149 B(  6-C ,  7-C ) :   1.1487 B(  6-C , 15-H ) :   0.9339
B(  6-C , 16-H ) :   0.9294 B(  7-C , 17-H ) :   0.9493 B(  7-C , 18-H ) :   0.9445
B(  7-C , 19-H ) :   0.9506

Dispersion correction           -0.015057833
FINAL SINGLE POINT ENERGY      -385.457566231186

DIPOLE MOMENT
-------------

Method             : SCF
Type of density    : Electron Density
Multiplicity       :   1
Irrep              :   0
Energy             :  -385.5324659187212433 Eh
Relativity type    :
Basis              : AO
                                X                 Y                 Z
Electronic contribution:      1.537879473       5.732203125      -0.362724267
Nuclear contribution   :     -1.355627803      -6.437726781      -0.031864729
                        -----------------------------------------
Total Dipole Moment    :      0.182251670      -0.705523656      -0.394588995
                        -----------------------------------------
Magnitude (a.u.)       :      0.828661436
Magnitude (Debye)      :      2.106289982

Rotational constants in cm-1:             0.104729             0.039332             0.034053
Rotational constants in MHz :          3139.701832          1179.133935          1020.892019

                             ****ORCA TERMINATED NORMALLY****
TOTAL RUN TIME: 0 days 0 hours 0 minutes 10 seconds 862 msec
