                         Program Version 6.0.0  -   RELEASE  -
|  1> ! r2scan-3c def2/J RI DEFGRID2 scfconv6 printgap
|  2> %output
|  3>     printlevel normal
|  4> end
|  5> * xyz 0 1
|  6> C -3.6581665249 -0.6189846933 0.2317509515
|  7> C -2.4049489636 0.1296676409 -0.2028375547
|  8> C -1.1470595163 -0.4861569675 0.4076216684
|  9> C 0.1116748037 0.1565082469 -0.1128984516
| 10> O 0.2275707952 0.6922327881 -1.1948760598
| 11> O 1.1000368564 0.0602821031 0.77047387
| 12> C 2.3958516763 0.5703580398 0.4123365054
| 13> C 3.2309595332 -0.4985955277 -0.275622494
| 14> H -4.5412160793 -0.1575379423 -0.2013276375
| 15> H -3.6161796371 -1.6551523753 -0.0942825179
| 16> H -3.7555394083 -0.6011704337 1.314342489
| 17> H -2.4752484932 1.1760628379 0.1002811862
| 18> H -2.3125593238 0.1105793207 -1.2902539503
| 19> H -1.0931730479 -1.5457054267 0.1434900951
| 20> H -1.1499831297 -0.4133396143 1.4951271068
| 21> H 2.2606517986 1.4366930057 -0.2422271687
| 22> H 2.8437409976 0.8759337367 1.3584172319
| 23> H 2.7694124125 -0.7827508922 -1.2187124258
| 24> H 4.2237707307 -0.1078080819 -0.4730332363
| 25> H 3.3097923888 -1.3769078011 0.359204762
| 26> *
| 27>
| 28>                          ****END OF INPUT****

CARTESIAN COORDINATES (ANGSTROEM)
---------------------------------
  C     -3.658167   -0.618985    0.231751
  C     -2.404949    0.129668   -0.202838
  C     -1.147060   -0.486157    0.407622
  C      0.111675    0.156508   -0.112898
  O      0.227571    0.692233   -1.194876
  O      1.100037    0.060282    0.770474
  C      2.395852    0.570358    0.412337
  C      3.230960   -0.498596   -0.275622
  H     -4.541216   -0.157538   -0.201328
  H     -3.616180   -1.655152   -0.094283
  H     -3.755539   -0.601170    1.314342
  H     -2.475248    1.176063    0.100281
  H     -2.312559    0.110579   -1.290254
  H     -1.093173   -1.545705    0.143490
  H     -1.149983   -0.413340    1.495127
  H      2.260652    1.436693   -0.242227
  H      2.843741    0.875934    1.358417
  H      2.769412   -0.782751   -1.218712
  H      4.223771   -0.107808   -0.473033
  H      3.309792   -1.376908    0.359205

 Total Charge           Charge          ....    0
 Multiplicity           Mult            ....    1
 Number of Electrons    NEL             ....   64
 Basis Dimension        Dim             ....  222

ORBITAL ENERGIES
----------------

  NO   OCC          E(Eh)            E(eV)
   0   2.0000     -18.995064      -516.8820
   1   2.0000     -18.928023      -515.0577
   2   2.0000     -10.151609      -276.2393
   3   2.0000     -10.090065      -274.5646
   4   2.0000     -10.041261      -273.2366
   5   2.0000     -10.029634      -272.9202
   6   2.0000     -10.028863      -272.8992
   7   2.0000     -10.019721      -272.6505
   8   2.0000      -1.069858       -29.1123
   9   2.0000      -0.975375       -26.5413
  10   2.0000      -0.771066       -20.9818
  11   2.0000      -0.739901       -20.1337
  12   2.0000      -0.680368       -18.5138
  13   2.0000      -0.621828       -16.9208
  14   2.0000      -0.562402       -15.3037
  15   2.0000      -0.520152       -14.1541
  16   2.0000      -0.473344       -12.8803
  17   2.0000      -0.458737       -12.4829
  18   2.0000      -0.436734       -11.8841
  19   2.0000      -0.423644       -11.5279
  20   2.0000      -0.411417       -11.1952
  21   2.0000      -0.384092       -10.4517
  22   2.0000      -0.381186       -10.3726
  23   2.0000      -0.363570        -9.8932
  24   2.0000      -0.352705        -9.5976
  25   2.0000      -0.336802        -9.1649
  26   2.0000      -0.322400        -8.7729
  27   2.0000      -0.313001        -8.5172
  28   2.0000      -0.303975        -8.2716
  29   2.0000      -0.302015        -8.2182
  30   2.0000      -0.270521        -7.3612
  31   2.0000      -0.236299        -6.4300
  32   0.0000      -0.012641        -0.3440
  33   0.0000       0.079261         2.1568
  34   0.0000       0.091890         2.5004
  35   0.0000       0.103976         2.8293
  36   0.0000       0.123357         3.3567

MULLIKEN ATOMIC CHARGES
-----------------------
   0 C :   -0.466627
   1 C :   -0.232932
   2 C :   -0.320929
   3 C :    0.389869
   4 O :   -0.434883
   5 O :   -0.177792
   6 C :   -0.143914
   7 C :   -0.465813
   8 H :    0.150280
   9 H :    0.142642
  10 H :    0.139817
  11 H :    0.140189
  12 H :    0.164618
  13 H :    0.166052
  14 H :    0.164257
  15 H :    0.170585
  16 H :    0.147292
  17 H :    0.168432
  18 H :    0.146646
  19 H :    0.152211
Sum of atomic charges:    0.0000000

LOEWDIN ATOMIC CHARGES
----------------------
   0 C :   -0.421819
   1 C :   -0.295362
   2 C :   -0.231186
   3 C :    0.364079
   4 O :   -0.439281
   5 O :   -0.597238
   6 C :    0.026419
   7 C :   -0.390214
   8 H :    0.152635
   9 H :    0.149784
  10 H :    0.149621
  11 H :    0.157187
  12 H :    0.167716
  13 H :    0.182078
  14 H :    0.179288
  15 H :    0.189337
  16 H :    0.177242
  17 H :    0.163590
  18 H :    0.159073
  19 H :    0.157051

  Mayer bond orders larger than 0.100000
B(  0-C ,  1-C ) :   0.8809 B(  0-C ,  8-H ) :   0.9755 B(  0-C ,  9-H ) :   0.9879
B(  0-C , 10-H ) :   0.9783 B(  1-C ,  2-C ) :   0.9435 B(  1-C , 11-H ) :   0.9626
B(  1-C , 12-H ) :   0.9649 B(  2-C ,  3-C ) :   0.9950 B(  2-C , 13-H ) :   0.9382
B(  2-C , 14-H ) :   0.9699 B(  3-C ,  4-O ) :   1.8264 B(  3-C ,  5-O ) :   1.0652
B(  5-O ,  6-C ) :   0.8103 B(  6-C ,  7-C ) :   0.9394 B(  6-C , 15-H ) :   0.9676
B(  6-C , 16-H ) :   0.9619 B(  7-C , 17-H ) :   0.9721 B(  7-C , 18-H ) :   0.9650
B(  7-C , 19-H ) :   0.9741

Dispersion correction           -0.004893533
FINAL SINGLE POINT ENERGY      -386.236478243051

DIPOLE MOMENT
-------------

Method             : SCF
Type of density    : Electron Density
Multiplicity       :   1
Irrep              :   0
Energy             :  -386.2433153028492825 Eh
Relativity type    :
Basis              : AO
                                X                 Y                 Z
Electronic contribution:      3.532924669       2.545953012      -0.567297555
Nuclear contribution   :     -3.298169430      -2.841903771       1.167377765
                        -----------------------------------------
Total Dipole Moment    :      0.234755240      -0.295950759       0.600080209
                        -----------------------------------------
Magnitude (a.u.)       :      0.709079073
Magnitude (Debye)      :      1.802335769

Rotational constants in cm-1:             0.209287             0.028039             0.026730
Rotational constants in MHz :          6274.279622           840.595946           801.337774

                             ****ORCA TERMINATED NORMALLY****
TOTAL RUN TIME: 0 days 0 hours 0 minutes 33 seconds 59 msec
