                         Program Version 6.0.0  -   RELEASE  -
|  1> ! r2scan-3c def2/J RI DEFGRID2 scfconv6 printgap
|  2> %output
|  3>     printlevel normal
|  4> end
|  5> %cpcm
|  6>     smd true
|  7>     smdsolvent "water"
|  8> end
|  9> * xyz 0 1
| 10> C -3.6581665249 -0.6189846933 0.2317509515
| 11> C -2.4049489636 0.1296676409 -0.2028375547
| 12> C -1.1470595163 -0.4861569675 0.4076216684
| 13> C 0.1116748037 0.1565082469 -0.1128984516
| 14> O 0.2275707952 0.6922327881 -1.1948760598
| 15> O 1.1000368564 0.0602821031 0.77047387
| 16> C 2.3958516763 0.5703580398 0.4123365054
| 17> C 3.2309595332 -0.4985955277 -0.275622494
| 18> H -4.5412160793 -0.1575379423 -0.2013276375
| 19> H -3.6161796371 -1.6551523753 -0.0942825179
| 20> H -3.7555394083 -0.6011704337 1.314342489
| 21> H -2.4752484932 1.1760628379 0.1002811862
| 22> H -2.3125593238 0.1105793207 -1.2902539503
| 23> H -1.0931730479 -1.5457054267 0.1434900951
| 24> H -1.1499831297 -0.4133396143 1.4951271068
| 25> H 2.2606517986 1.4366930057 -0.2422271687
| 26> H 2.8437409976 0.8759337367 1.3584172319
| 27> H 2.7694124125 -0.7827508922 -1.2187124258
| 28> H 4.2237707307 -0.1078080819 -0.4730332363
| 29> H 3.3097923888 -1.3769078011 0.359204762
| 30> *
| 31>
| 32>                          ****END OF INPUT****

CARTESIAN COORDINATES (ANGSTROEM)
---------------------------------
  C     -3.658167   -0.618985    0.231751
  C     -2.404949    0.129668   -0.202838
  C     -1.147060   -0.486157    0.407622
  C      0.111675    0.156508   -0.112898
  O      0.227571    0.692233   -1.194876
  O      1.100037    0.060282    0.770474
  C      2.395852    0.570358    0.412337
  C      3.230960   -0.498596   -0.275622
  H     -4.541216   -0.157538   -0.201328
  H     -3.616180   -1.655152   -0.094283
  H     -3.755539   -0.601170    1.314342
  H     -2.475248    1.176063    0.100281
  H     -2.312559    0.110579   -1.290254
  H     -1.093173   -1.545705    0.143490
  H     -1.149983   -0.413340    1.495127
  H      2.260652    1.436693   -0.242227
  H      2.843741    0.875934    1.358417
  H      2.769412   -0.782751   -1.218712
  H      4.223771   -0.107808   -0.473033
  H      3.309792   -1.376908    0.359205

 Total Charge           Charge          ....    0
 Multiplicity           Mult            ....    1
 Number of Electrons    NEL             ....   64
 Basis Dimension        Dim             ....  222

ORBITAL ENERGIES
----------------

  NO   OCC          E(Eh)            E(eV)
   0   2.0000     -19.001059      -517.0451
   1   2.0000     -18.943601      -515.4816
   2   2.0000     -10.162212      -276.5279
   3   2.0000     -10.082628      -274.3623
   4   2.0000     -10.035142      -273.0701
   5   2.0000     -10.024857      -272.7902
   6   2.0000     -10.018196      -272.6090
   7   2.0000     -10.010766      -272.4068
   8   2.0000      -1.077524       -29.3209
   9   2.0000      -0.988820       -26.9072
  10   2.0000      -0.766760       -20.8646
  11   2.0000      -0.733431       -19.9577
  12   2.0000      -0.674404       -18.3515
  13   2.0000      -0.616614       -16.7789
  14   2.0000      -0.556442       -15.1416
  15   2.0000      -0.518863       -14.1190
  16   2.0000      -0.473637       -12.8883
  17   2.0000      -0.462608       -12.5882
  18   2.0000      -0.442984       -12.0542
  19   2.0000      -0.419890       -11.4258
  20   2.0000      -0.409990       -11.1564
  21   2.0000      -0.377878       -10.2826
  22   2.0000      -0.375421       -10.2157
  23   2.0000      -0.358465        -9.7543
  24   2.0000      -0.346892        -9.4394
  25   2.0000      -0.336189        -9.1482
  26   2.0000      -0.317182        -8.6310
  27   2.0000      -0.307589        -8.3699
  28   2.0000      -0.301766        -8.2115
  29   2.0000      -0.296649        -8.0722
  30   2.0000      -0.277204        -7.5431
  31   2.0000      -0.252169        -6.8619
  32   0.0000      -0.020651        -0.5620
  33   0.0000       0.081483         2.2173
  34   0.0000       0.098718         2.6862
  35   0.0000       0.112907         3.0724
  36   0.0000       0.131931         3.5900

MULLIKEN ATOMIC CHARGES
-----------------------
   0 C :   -0.513863
   1 C :   -0.242140
   2 C :   -0.332194
   3 C :    0.431077
   4 O :   -0.517902
   5 O :   -0.198860
   6 C :   -0.146716
   7 C :   -0.492401
   8 H :    0.160229
   9 H :    0.157948
  10 H :    0.155233
  11 H :    0.156158
  12 H :    0.154967
  13 H :    0.198459
  14 H :    0.182329
  15 H :    0.172182
  16 H :    0.172941
  17 H :    0.167339
  18 H :    0.169642
  19 H :    0.165574
Sum of atomic charges:    0.0000000

LOEWDIN ATOMIC CHARGES
----------------------
   0 C :   -0.426692
   1 C :   -0.297497
   2 C :   -0.228072
   3 C :    0.375000
   4 O :   -0.498532
   5 O :   -0.600763
   6 C :    0.031084
   7 C :   -0.393129
   8 H :    0.155016
   9 H :    0.154280
  10 H :    0.154428
  11 H :    0.160086
  12 H :    0.162857
  13 H :    0.194534
  14 H :    0.187830
  15 H :    0.189998
  16 H :    0.188420
  17 H :    0.161817
  18 H :    0.167554
  19 H :    0.161781

  Mayer bond orders larger than 0.100000
B(  0-C ,  1-C ) :   0.8825 B(  0-C ,  8-H ) :   0.9724 B(  0-C ,  9-H ) :   0.9843
B(  0-C , 10-H ) :   0.9765 B(  1-C ,  2-C ) :   0.9273 B(  1-C , 11-H ) :   0.9644
B(  1-C , 12-H ) :   0.9647 B(  2-C ,  3-C ) :   1.0010 B(  2-C , 13-H ) :   0.9244
B(  2-C , 14-H ) :   0.9604 B(  3-C ,  4-O ) :   1.7644 B(  3-C ,  5-O ) :   1.0878
B(  5-O ,  6-C ) :   0.7932 B(  6-C ,  7-C ) :   0.9387 B(  6-C , 15-H ) :   0.9634
B(  6-C , 16-H ) :   0.9528 B(  7-C , 17-H ) :   0.9693 B(  7-C , 18-H ) :   0.9601
B(  7-C , 19-H ) :   0.9703

Dispersion correction           -0.004893533
FINAL SINGLE POINT ENERGY      -386.241280363234

DIPOLE MOMENT
-------------

Method             : SCF
Type of density    : Electron Density
Multiplicity       :   1
Irrep              :   0
Energy             :  -386.2481174230322836 Eh
Relativity type    :
Basis              : AO
                                X                 Y                 Z
Electronic contribution:      3.607317314       2.385134820      -0.234660680
Nuclear contribution   :     -3.298169430      -2.841903771       1.167377765
                        -----------------------------------------
Total Dipole Moment    :      0.309147884      -0.456768951       0.932717084
                        -----------------------------------------
Magnitude (a.u.)       :      1.083591920
Magnitude (Debye)      :      2.754271774

Rotational constants in cm-1:             0.209287             0.028039             0.026730
Rotational constants in MHz :          6274.279622           840.595946           801.337774

                             ****ORCA TERMINATED NORMALLY****
TOTAL RUN TIME: 0 days 0 hours 0 minutes 37 seconds 769 msec
