                         Program Version 6.0.0  -   RELEASE  -
|  1> ! pbe def2-sv(p) def2/J RI DEFGRID1 loosescf d4 GCP(DFT/SV(P)) printgap
|  2> %output
|  3>     printlevel normal
|  4> end
|  5> * xyz 0 1
|  6> C -2.1421757243 -1.3964193165 -0.45705976
|  7> C -2.0459835267 -0.4414657679 0.7265167613
|  8> C -1.4733485569 0.9192416679 0.3121959134
|  9> C -0.0525336509 0.7938812992 -0.175452118
| 10> O 0.3315315394 1.124614027 -1.2786828123
| 11> O 0.7439952047 0.2904869059 0.7587659652
| 12> C 2.1281582825 0.0807964333 0.4381286635
| 13> C 2.3380253752 -1.2652059407 -0.2389321845
| 14> H -2.549428326 -2.3531981344 -0.1415048833
| 15> H -2.7866633099 -0.9832930242 -1.2295292995
| 16> H -1.1599554857 -1.5669318715 -0.8938654765
| 17> H -1.4082459479 -0.8723624479 1.4993148984
| 18> H -3.0388850087 -0.2853414755 1.1494747193
| 19> H -1.470810339 1.5889008395 1.1731688311
| 20> H -2.0673288784 1.3606645458 -0.4881220388
| 21> H 2.4636360991 0.8946104672 -0.2120763212
| 22> H 2.6419466269 0.1260075421 1.398768166
| 23> H 1.9473243285 -2.0642780725 0.3854664483
| 24> H 1.827307832 -1.2826078122 -1.1994913079
| 25> H 3.398738542 -1.4242654873 -0.4028787374
| 26> *
| 27>
| 28>                          ****END OF INPUT****

CARTESIAN COORDINATES (ANGSTROEM)
---------------------------------
  C     -2.142176   -1.396419   -0.457060
  C     -2.045984   -0.441466    0.726517
  C     -1.473349    0.919242    0.312196
  C     -0.052534    0.793881   -0.175452
  O      0.331532    1.124614   -1.278683
  O      0.743995    0.290487    0.758766
  C      2.128158    0.080796    0.438129
  C      2.338025   -1.265206   -0.238932
  H     -2.549428   -2.353198   -0.141505
  H     -2.786663   -0.983293   -1.229529
  H     -1.159955   -1.566932   -0.893865
  H     -1.408246   -0.872362    1.499315
  H     -3.038885   -0.285341    1.149475
  H     -1.470810    1.588901    1.173169
  H     -2.067329    1.360665   -0.488122
  H      2.463636    0.894610   -0.212076
  H      2.641947    0.126008    1.398768
  H      1.947324   -2.064278    0.385466
  H      1.827308   -1.282608   -1.199491
  H      3.398739   -1.424265   -0.402879

 Total Charge           Charge          ....    0
 Multiplicity           Mult            ....    1
 Number of Electrons    NEL             ....   64
 Basis Dimension        Dim             ....  136

ORBITAL ENERGIES
----------------

  NO   OCC          E(Eh)            E(eV)
   0   2.0000     -18.797361      -511.5022
   1   2.0000     -18.730134      -509.6729
   2   2.0000     -10.004294      -272.2307
   3   2.0000      -9.946893      -270.6687
   4   2.0000      -9.896134      -269.2875
   5   2.0000      -9.893403      -269.2132
   6   2.0000      -9.887392      -269.0496
   7   2.0000      -9.878222      -268.8001
   8   2.0000      -1.004211       -27.3260
   9   2.0000      -0.907115       -24.6838
  10   2.0000      -0.730238       -19.8708
  11   2.0000      -0.695234       -18.9183
  12   2.0000      -0.636280       -17.3141
  13   2.0000      -0.590458       -16.0672
  14   2.0000      -0.536999       -14.6125
  15   2.0000      -0.495025       -13.4703
  16   2.0000      -0.452086       -12.3019
  17   2.0000      -0.436221       -11.8702
  18   2.0000      -0.408516       -11.1163
  19   2.0000      -0.404353       -11.0030
  20   2.0000      -0.393515       -10.7081
  21   2.0000      -0.376636       -10.2488
  22   2.0000      -0.358174        -9.7464
  23   2.0000      -0.352761        -9.5991
  24   2.0000      -0.338564        -9.2128
  25   2.0000      -0.327465        -8.9108
  26   2.0000      -0.311693        -8.4816
  27   2.0000      -0.299712        -8.1556
  28   2.0000      -0.298512        -8.1229
  29   2.0000      -0.289174        -7.8688
  30   2.0000      -0.255288        -6.9467
  31   2.0000      -0.213491        -5.8094
  32   0.0000      -0.019700        -0.5361
  33   0.0000       0.034966         0.9515
  34   0.0000       0.056041         1.5249
  35   0.0000       0.069218         1.8835
  36   0.0000       0.080797         2.1986

MULLIKEN ATOMIC CHARGES
-----------------------
   0 C :   -0.290467
   1 C :   -0.213818
   2 C :   -0.104100
   3 C :    0.082789
   4 O :   -0.204603
   5 O :   -0.242571
   6 C :   -0.011959
   7 C :   -0.309573
   8 H :    0.106231
   9 H :    0.103368
  10 H :    0.119435
  11 H :    0.103175
  12 H :    0.093599
  13 H :    0.107743
  14 H :    0.096807
  15 H :    0.107573
  16 H :    0.100663
  17 H :    0.113276
  18 H :    0.130161
  19 H :    0.112272
Sum of atomic charges:    0.0000000

LOEWDIN ATOMIC CHARGES
----------------------
   0 C :   -0.342521
   1 C :   -0.230667
   2 C :   -0.242404
   3 C :    0.034355
   4 O :   -0.170054
   5 O :   -0.068293
   6 C :   -0.112465
   7 C :   -0.357459
   8 H :    0.120964
   9 H :    0.120515
  10 H :    0.119963
  11 H :    0.119596
  12 H :    0.118599
  13 H :    0.138355
  14 H :    0.131752
  15 H :    0.119274
  16 H :    0.116533
  17 H :    0.123799
  18 H :    0.129796
  19 H :    0.130362

  Mayer bond orders larger than 0.100000
B(  0-C ,  1-C ) :   1.1519 B(  0-C ,  8-H ) :   0.9511 B(  0-C ,  9-H ) :   0.9532
B(  0-C , 10-H ) :   0.9473 B(  1-C ,  2-C ) :   1.1093 B(  1-C , 11-H ) :   0.9231
B(  1-C , 12-H ) :   0.9267 B(  2-C ,  3-C ) :   1.0332 B(  2-C , 13-H ) :   0.8932
B(  2-C , 14-H ) :   0.9111 B(  3-C ,  4-O ) :   2.0556 B(  3-C ,  5-O ) :   1.1897
B(  5-O ,  6-C ) :   0.9260 B(  6-C ,  7-C ) :   1.1733 B(  6-C , 15-H ) :   0.9140
B(  6-C , 16-H ) :   0.9372 B(  7-C , 17-H ) :   0.9487 B(  7-C , 18-H ) :   0.9429
B(  7-C , 19-H ) :   0.9436

Dispersion correction           -0.015668016
FINAL SINGLE POINT ENERGY      -385.457975693734

DIPOLE MOMENT
-------------

Method             : SCF
Type of density    : Electron Density
Multiplicity       :   1
Irrep              :   0
Energy             :  -385.5327843022361094 Eh
Relativity type    :
Basis              : AO
                                X                 Y                 Z
Electronic contribution:      2.140894351       6.019045459      -0.316354458
Nuclear contribution   :     -2.050236348      -6.416805596       0.966787789
                        -----------------------------------------
Total Dipole Moment    :      0.090658002      -0.397760137       0.650433331
                        -----------------------------------------
Magnitude (a.u.)       :      0.767786115
Magnitude (Debye)      :      1.951557211

Rotational constants in cm-1:             0.100733             0.043539             0.038662
Rotational constants in MHz :          3019.903854          1305.265628          1159.062905

                             ****ORCA TERMINATED NORMALLY****
TOTAL RUN TIME: 0 days 0 hours 0 minutes 10 seconds 898 msec
