                         Program Version 6.0.0  -   RELEASE  -
|  1> ! r2scan-3c def2/J RI DEFGRID2 scfconv6 printgap
|  2> %output
|  3>     printlevel normal
|  4> end
|  5> * xyz 0 1
|  6> C 1.9216867847 1.1787395834 0.8109974459
|  7> C 1.4116825503 0.2856259666 -0.3076116164
|  8> C 2.4926550751 -0.6444056041 -0.8335663316
|  9> S 0.0030314249 -0.7462692014 0.2969367609
| 10> C -1.4146016182 0.4089505279 0.0316893364
| 11> C -1.9270139419 0.2871140066 -1.3936742088
| 12> C -2.4909211685 0.0856035538 1.0549381597
| 13> H 2.7245975767 1.8137942792 0.4426456923
| 14> H 1.1270602033 1.8143178618 1.1963163324
| 15> H 2.3008049775 0.5696120956 1.6283603546
| 16> H 1.0064315787 0.8875310662 -1.1247797776
| 17> H 2.8592725488 -1.2821594675 -0.0323992421
| 18> H 3.3225630044 -0.0626553389 -1.2281331991
| 19> H 2.0978655719 -1.2785632547 -1.6235569949
| 20> H -1.0161781884 1.4104499299 0.2120383377
| 21> H -1.1355421289 0.4908792197 -2.1119592396
| 22> H -2.2990815332 -0.7196595619 -1.5693129866
| 23> H -2.7356062752 0.9958356142 -1.5597225719
| 24> H -3.3264019241 0.7729857253 0.9440588609
| 25> H -2.0946378283 0.1700930482 2.0638355338
| 26> H -2.8499669355 -0.9309717074 0.9111787229
| 27> *
| 28>
| 29>                          ****END OF INPUT****

CARTESIAN COORDINATES (ANGSTROEM)
---------------------------------
  C      1.921687    1.178740    0.810997
  C      1.411683    0.285626   -0.307612
  C      2.492655   -0.644406   -0.833566
  S      0.003031   -0.746269    0.296937
  C     -1.414602    0.408951    0.031689
  C     -1.927014    0.287114   -1.393674
  C     -2.490921    0.085604    1.054938
  H      2.724598    1.813794    0.442646
  H      1.127060    1.814318    1.196316
  H      2.300805    0.569612    1.628360
  H      1.006432    0.887531   -1.124780
  H      2.859273   -1.282159   -0.032399
  H      3.322563   -0.062655   -1.228133
  H      2.097866   -1.278563   -1.623557
  H     -1.016178    1.410450    0.212038
  H     -1.135542    0.490879   -2.111959
  H     -2.299082   -0.719660   -1.569313
  H     -2.735606    0.995836   -1.559723
  H     -3.326402    0.772986    0.944059
  H     -2.094638    0.170093    2.063836
  H     -2.849967   -0.930972    0.911179

 Total Charge           Charge          ....    0
 Multiplicity           Mult            ....    1
 Number of Electrons    NEL             ....   66
 Basis Dimension        Dim             ....  211

ORBITAL ENERGIES
----------------

  NO   OCC          E(Eh)            E(eV)
   0   2.0000     -88.534300     -2409.1408
   1   2.0000     -10.066173      -273.9145
   2   2.0000     -10.066171      -273.9144
   3   2.0000     -10.023611      -272.7563
   4   2.0000     -10.023610      -272.7563
   5   2.0000     -10.021708      -272.7045
   6   2.0000     -10.021700      -272.7043
   7   2.0000      -7.828610      -213.0273
   8   2.0000      -5.775978      -157.1724
   9   2.0000      -5.772522      -157.0783
  10   2.0000      -5.765194      -156.8789
  11   2.0000      -0.793332       -21.5877
  12   2.0000      -0.760140       -20.6845
  13   2.0000      -0.658250       -17.9119
  14   2.0000      -0.657557       -17.8930
  15   2.0000      -0.648383       -17.6434
  16   2.0000      -0.549596       -14.9553
  17   2.0000      -0.520542       -14.1647
  18   2.0000      -0.445349       -12.1186
  19   2.0000      -0.431109       -11.7311
  20   2.0000      -0.409852       -11.1526
  21   2.0000      -0.386163       -10.5080
  22   2.0000      -0.386049       -10.5049
  23   2.0000      -0.379195       -10.3184
  24   2.0000      -0.359331        -9.7779
  25   2.0000      -0.359182        -9.7738
  26   2.0000      -0.323071        -8.7912
  27   2.0000      -0.320345        -8.7170
  28   2.0000      -0.318305        -8.6615
  29   2.0000      -0.318029        -8.6540
  30   2.0000      -0.291121        -7.9218
  31   2.0000      -0.264795        -7.2054
  32   2.0000      -0.186350        -5.0708
  33   0.0000       0.014627         0.3980
  34   0.0000       0.052765         1.4358
  35   0.0000       0.074619         2.0305
  36   0.0000       0.115160         3.1337
  37   0.0000       0.118184         3.2160

MULLIKEN ATOMIC CHARGES
-----------------------
   0 C :   -0.438026
   1 C :   -0.043569
   2 C :   -0.471437
   3 S :   -0.179747
   4 C :   -0.043542
   5 C :   -0.438132
   6 C :   -0.471295
   7 H :    0.140248
   8 H :    0.140467
   9 H :    0.155522
  10 H :    0.147529
  11 H :    0.154006
  12 H :    0.143662
  13 H :    0.161424
  14 H :    0.147608
  15 H :    0.140425
  16 H :    0.155508
  17 H :    0.140296
  18 H :    0.143620
  19 H :    0.161434
  20 H :    0.154001
Sum of atomic charges:    0.0000000

LOEWDIN ATOMIC CHARGES
----------------------
   0 C :   -0.420793
   1 C :   -0.287947
   2 C :   -0.418964
   3 S :    0.060809
   4 C :   -0.287937
   5 C :   -0.420801
   6 C :   -0.418945
   7 H :    0.150616
   8 H :    0.152844
   9 H :    0.159385
  10 H :    0.161407
  11 H :    0.157905
  12 H :    0.154532
  13 H :    0.160602
  14 H :    0.161409
  15 H :    0.152828
  16 H :    0.159388
  17 H :    0.150627
  18 H :    0.154533
  19 H :    0.160596
  20 H :    0.157907

  Mayer bond orders larger than 0.100000
B(  0-C ,  1-C ) :   0.9196 B(  0-C ,  7-H ) :   0.9669 B(  0-C ,  8-H ) :   0.9663
B(  0-C ,  9-H ) :   0.9806 B(  1-C ,  2-C ) :   0.9147 B(  1-C ,  3-S ) :   0.8890
B(  1-C , 10-H ) :   0.9339 B(  2-C , 11-H ) :   0.9774 B(  2-C , 12-H ) :   0.9672
B(  2-C , 13-H ) :   0.9724 B(  3-S ,  4-C ) :   0.8890 B(  4-C ,  5-C ) :   0.9196
B(  4-C ,  6-C ) :   0.9146 B(  4-C , 14-H ) :   0.9340 B(  5-C , 15-H ) :   0.9663
B(  5-C , 16-H ) :   0.9806 B(  5-C , 17-H ) :   0.9669 B(  6-C , 18-H ) :   0.9671
B(  6-C , 19-H ) :   0.9724 B(  6-C , 20-H ) :   0.9775

Dispersion correction           -0.006082417
FINAL SINGLE POINT ENERGY      -635.158144287727

DIPOLE MOMENT
-------------

Method             : SCF
Type of density    : Electron Density
Multiplicity       :   1
Irrep              :   0
Energy             :  -635.1650260348105803 Eh
Relativity type    :
Basis              : AO
                                X                 Y                 Z
Electronic contribution:      0.014961374      -3.747466439       1.491705923
Nuclear contribution   :     -0.017743421       4.385470146      -1.745543708
                        -----------------------------------------
Total Dipole Moment    :     -0.002782048       0.638003707      -0.253837785
                        -----------------------------------------
Magnitude (a.u.)       :      0.686651360
Magnitude (Debye)      :      1.745329054

Rotational constants in cm-1:             0.119229             0.040086             0.037438
Rotational constants in MHz :          3574.393034          1201.739685          1122.354902

                             ****ORCA TERMINATED NORMALLY****
TOTAL RUN TIME: 0 days 0 hours 0 minutes 24 seconds 716 msec
