                         Program Version 6.0.0  -   RELEASE  -
|  1> ! r2scan-3c def2/J RI DEFGRID2 scfconv6 printgap
|  2> %output
|  3>     printlevel normal
|  4> end
|  5> %cpcm
|  6>     smd true
|  7>     smdsolvent "water"
|  8> end
|  9> * xyz 0 1
| 10> C 1.9216867847 1.1787395834 0.8109974459
| 11> C 1.4116825503 0.2856259666 -0.3076116164
| 12> C 2.4926550751 -0.6444056041 -0.8335663316
| 13> S 0.0030314249 -0.7462692014 0.2969367609
| 14> C -1.4146016182 0.4089505279 0.0316893364
| 15> C -1.9270139419 0.2871140066 -1.3936742088
| 16> C -2.4909211685 0.0856035538 1.0549381597
| 17> H 2.7245975767 1.8137942792 0.4426456923
| 18> H 1.1270602033 1.8143178618 1.1963163324
| 19> H 2.3008049775 0.5696120956 1.6283603546
| 20> H 1.0064315787 0.8875310662 -1.1247797776
| 21> H 2.8592725488 -1.2821594675 -0.0323992421
| 22> H 3.3225630044 -0.0626553389 -1.2281331991
| 23> H 2.0978655719 -1.2785632547 -1.6235569949
| 24> H -1.0161781884 1.4104499299 0.2120383377
| 25> H -1.1355421289 0.4908792197 -2.1119592396
| 26> H -2.2990815332 -0.7196595619 -1.5693129866
| 27> H -2.7356062752 0.9958356142 -1.5597225719
| 28> H -3.3264019241 0.7729857253 0.9440588609
| 29> H -2.0946378283 0.1700930482 2.0638355338
| 30> H -2.8499669355 -0.9309717074 0.9111787229
| 31> *
| 32>
| 33>                          ****END OF INPUT****

CARTESIAN COORDINATES (ANGSTROEM)
---------------------------------
  C      1.921687    1.178740    0.810997
  C      1.411683    0.285626   -0.307612
  C      2.492655   -0.644406   -0.833566
  S      0.003031   -0.746269    0.296937
  C     -1.414602    0.408951    0.031689
  C     -1.927014    0.287114   -1.393674
  C     -2.490921    0.085604    1.054938
  H      2.724598    1.813794    0.442646
  H      1.127060    1.814318    1.196316
  H      2.300805    0.569612    1.628360
  H      1.006432    0.887531   -1.124780
  H      2.859273   -1.282159   -0.032399
  H      3.322563   -0.062655   -1.228133
  H      2.097866   -1.278563   -1.623557
  H     -1.016178    1.410450    0.212038
  H     -1.135542    0.490879   -2.111959
  H     -2.299082   -0.719660   -1.569313
  H     -2.735606    0.995836   -1.559723
  H     -3.326402    0.772986    0.944059
  H     -2.094638    0.170093    2.063836
  H     -2.849967   -0.930972    0.911179

 Total Charge           Charge          ....    0
 Multiplicity           Mult            ....    1
 Number of Electrons    NEL             ....   66
 Basis Dimension        Dim             ....  211

ORBITAL ENERGIES
----------------

  NO   OCC          E(Eh)            E(eV)
   0   2.0000     -88.533531     -2409.1199
   1   2.0000     -10.057941      -273.6905
   2   2.0000     -10.057931      -273.6902
   3   2.0000     -10.014726      -272.5145
   4   2.0000     -10.014713      -272.5142
   5   2.0000     -10.012011      -272.4407
   6   2.0000     -10.012001      -272.4404
   7   2.0000      -7.827925      -213.0087
   8   2.0000      -5.775053      -157.1472
   9   2.0000      -5.771752      -157.0574
  10   2.0000      -5.764883      -156.8704
  11   2.0000      -0.786332       -21.3972
  12   2.0000      -0.751523       -20.4500
  13   2.0000      -0.649627       -17.6772
  14   2.0000      -0.649013       -17.6605
  15   2.0000      -0.642949       -17.4955
  16   2.0000      -0.540883       -14.7182
  17   2.0000      -0.512712       -13.9516
  18   2.0000      -0.436861       -11.8876
  19   2.0000      -0.422007       -11.4834
  20   2.0000      -0.401549       -10.9267
  21   2.0000      -0.377759       -10.2793
  22   2.0000      -0.377147       -10.2627
  23   2.0000      -0.370637       -10.0856
  24   2.0000      -0.350366        -9.5340
  25   2.0000      -0.350097        -9.5266
  26   2.0000      -0.314091        -8.5469
  27   2.0000      -0.311795        -8.4844
  28   2.0000      -0.309711        -8.4277
  29   2.0000      -0.308298        -8.3892
  30   2.0000      -0.283941        -7.7264
  31   2.0000      -0.261951        -7.1281
  32   2.0000      -0.187153        -5.0927
  33   0.0000       0.016696         0.4543
  34   0.0000       0.056349         1.5333
  35   0.0000       0.085956         2.3390
  36   0.0000       0.125310         3.4099
  37   0.0000       0.127302         3.4641

MULLIKEN ATOMIC CHARGES
-----------------------
   0 C :   -0.499226
   1 C :   -0.006108
   2 C :   -0.511926
   3 S :   -0.256118
   4 C :   -0.006286
   5 C :   -0.498629
   6 C :   -0.511776
   7 H :    0.157897
   8 H :    0.158993
   9 H :    0.162213
  10 H :    0.173638
  11 H :    0.164611
  12 H :    0.163355
  13 H :    0.164527
  14 H :    0.173671
  15 H :    0.158787
  16 H :    0.162007
  17 H :    0.157950
  18 H :    0.163308
  19 H :    0.164522
  20 H :    0.164588
Sum of atomic charges:    0.0000000

LOEWDIN ATOMIC CHARGES
----------------------
   0 C :   -0.427997
   1 C :   -0.280767
   2 C :   -0.426430
   3 S :    0.021646
   4 C :   -0.280738
   5 C :   -0.427926
   6 C :   -0.426401
   7 H :    0.157179
   8 H :    0.157128
   9 H :    0.158624
  10 H :    0.170960
  11 H :    0.159327
  12 H :    0.161453
  13 H :    0.159675
  14 H :    0.170959
  15 H :    0.157077
  16 H :    0.158585
  17 H :    0.157199
  18 H :    0.161459
  19 H :    0.159665
  20 H :    0.159322

  Mayer bond orders larger than 0.100000
B(  0-C ,  1-C ) :   0.9059 B(  0-C ,  7-H ) :   0.9628 B(  0-C ,  8-H ) :   0.9654
B(  0-C ,  9-H ) :   0.9821 B(  1-C ,  2-C ) :   0.9015 B(  1-C ,  3-S ) :   0.8686
B(  1-C , 10-H ) :   0.9309 B(  2-C , 11-H ) :   0.9753 B(  2-C , 12-H ) :   0.9629
B(  2-C , 13-H ) :   0.9722 B(  3-S ,  4-C ) :   0.8686 B(  4-C ,  5-C ) :   0.9063
B(  4-C ,  6-C ) :   0.9016 B(  4-C , 14-H ) :   0.9309 B(  5-C , 15-H ) :   0.9654
B(  5-C , 16-H ) :   0.9821 B(  5-C , 17-H ) :   0.9628 B(  6-C , 18-H ) :   0.9628
B(  6-C , 19-H ) :   0.9722 B(  6-C , 20-H ) :   0.9753

Dispersion correction           -0.006082417
FINAL SINGLE POINT ENERGY      -635.158925047239

DIPOLE MOMENT
-------------

Method             : SCF
Type of density    : Electron Density
Multiplicity       :   1
Irrep              :   0
Energy             :  -635.1658067943218384 Eh
Relativity type    :
Basis              : AO
                                X                 Y                 Z
Electronic contribution:      0.013433164      -3.403969627       1.355310140
Nuclear contribution   :     -0.017743421       4.385470146      -1.745543708
                        -----------------------------------------
Total Dipole Moment    :     -0.004310257       0.981500518      -0.390233568
                        -----------------------------------------
Magnitude (a.u.)       :      1.056240543
Magnitude (Debye)      :      2.684750099

Rotational constants in cm-1:             0.119229             0.040086             0.037438
Rotational constants in MHz :          3574.393034          1201.739685          1122.354902

                             ****ORCA TERMINATED NORMALLY****
TOTAL RUN TIME: 0 days 0 hours 0 minutes 29 seconds 447 msec
