                         Program Version 6.0.0  -   RELEASE  -
|  1> ! pbe def2-sv(p) def2/J RI DEFGRID1 loosescf d4 GCP(DFT/SV(P)) printgap
|  2> %output
|  3>     printlevel normal
|  4> end
|  5> * xyz 0 1
|  6> C 1.833583298 -0.1669562799 1.1688173932
|  7> C 1.3574278715 -0.3926236599 -0.2746046938
|  8> C 1.7348339547 0.7999891861 -1.1554655106
|  9> N -0.057118919 -0.699537958 -0.4220686789
| 10> C -1.0467490125 0.2448756159 0.0845716588
| 11> C -1.6048322496 -0.1437881428 1.4580979067
| 12> C -2.1882271065 0.3386123357 -0.9329332778
| 13> H 1.3802261357 0.7277609318 1.5895107376
| 14> H 1.5757200167 -1.0197732812 1.7940986183
| 15> H 2.9133170428 -0.0433271061 1.1851366846
| 16> H 1.8798679126 -1.2742816235 -0.6676413592
| 17> H 1.3438240367 1.7295393047 -0.7498931417
| 18> H 1.3304579672 0.6589802783 -2.1535915615
| 19> H 2.8161576451 0.8840035008 -1.2198425283
| 20> H -0.2561218245 -1.6254813733 -0.0629713042
| 21> H -0.575096087 1.2292083696 0.1599640878
| 22> H -2.326602189 0.5966553738 1.7939061213
| 23> H -2.1058780941 -1.1084144943 1.3957418506
| 24> H -0.8125027226 -0.2121566264 2.1993075157
| 25> H -1.7945366445 0.6233763905 -1.9040985276
| 26> H -2.9206864972 1.0764682191 -0.6164755941
| 27> H -2.6796576699 -0.6259009961 -1.0305270047
| 28> *
| 29>
| 30>                          ****END OF INPUT****

CARTESIAN COORDINATES (ANGSTROEM)
---------------------------------
  C      1.833583   -0.166956    1.168817
  C      1.357428   -0.392624   -0.274605
  C      1.734834    0.799989   -1.155466
  N     -0.057119   -0.699538   -0.422069
  C     -1.046749    0.244876    0.084572
  C     -1.604832   -0.143788    1.458098
  C     -2.188227    0.338612   -0.932933
  H      1.380226    0.727761    1.589511
  H      1.575720   -1.019773    1.794099
  H      2.913317   -0.043327    1.185137
  H      1.879868   -1.274282   -0.667641
  H      1.343824    1.729539   -0.749893
  H      1.330458    0.658980   -2.153592
  H      2.816158    0.884004   -1.219843
  H     -0.256122   -1.625481   -0.062971
  H     -0.575096    1.229208    0.159964
  H     -2.326602    0.596655    1.793906
  H     -2.105878   -1.108414    1.395742
  H     -0.812503   -0.212157    2.199308
  H     -1.794537    0.623376   -1.904099
  H     -2.920686    1.076468   -0.616476
  H     -2.679658   -0.625901   -1.030527

 Total Charge           Charge          ....    0
 Multiplicity           Mult            ....    1
 Number of Electrons    NEL             ....   58
 Basis Dimension        Dim             ....  128

ORBITAL ENERGIES
----------------

  NO   OCC          E(Eh)            E(eV)
   0   2.0000     -13.955874      -379.7586
   1   2.0000      -9.914899      -269.7981
   2   2.0000      -9.912890      -269.7434
   3   2.0000      -9.871682      -268.6221
   4   2.0000      -9.869724      -268.5688
   5   2.0000      -9.867030      -268.4955
   6   2.0000      -9.861840      -268.3543
   7   2.0000      -0.814808       -22.1720
   8   2.0000      -0.703432       -19.1414
   9   2.0000      -0.651774       -17.7357
  10   2.0000      -0.612131       -16.6569
  11   2.0000      -0.603000       -16.4085
  12   2.0000      -0.533162       -14.5081
  13   2.0000      -0.496918       -13.5218
  14   2.0000      -0.437424       -11.9029
  15   2.0000      -0.410997       -11.1838
  16   2.0000      -0.388921       -10.5831
  17   2.0000      -0.379618       -10.3299
  18   2.0000      -0.370454       -10.0806
  19   2.0000      -0.353587        -9.6216
  20   2.0000      -0.337795        -9.1919
  21   2.0000      -0.335844        -9.1388
  22   2.0000      -0.332532        -9.0487
  23   2.0000      -0.313635        -8.5344
  24   2.0000      -0.303782        -8.2663
  25   2.0000      -0.290265        -7.8985
  26   2.0000      -0.284726        -7.7478
  27   2.0000      -0.276982        -7.5371
  28   2.0000      -0.161691        -4.3998
  29   0.0000       0.029312         0.7976
  30   0.0000       0.052384         1.4254
  31   0.0000       0.059093         1.6080
  32   0.0000       0.078190         2.1277
  33   0.0000       0.088976         2.4212

MULLIKEN ATOMIC CHARGES
-----------------------
   0 C :   -0.242779
   1 C :   -0.108726
   2 C :   -0.238088
   3 N :   -0.309604
   4 C :   -0.112142
   5 C :   -0.259978
   6 C :   -0.202192
   7 H :    0.101346
   8 H :    0.093301
   9 H :    0.093327
  10 H :    0.064000
  11 H :    0.096328
  12 H :    0.105156
  13 H :    0.096141
  14 H :    0.190822
  15 H :    0.078563
  16 H :    0.096434
  17 H :    0.090680
  18 H :    0.103703
  19 H :    0.097266
  20 H :    0.083909
  21 H :    0.082534
Sum of atomic charges:    0.0000000

LOEWDIN ATOMIC CHARGES
----------------------
   0 C :   -0.352033
   1 C :   -0.103657
   2 C :   -0.339377
   3 N :   -0.241876
   4 C :   -0.104328
   5 C :   -0.346223
   6 C :   -0.335916
   7 H :    0.116398
   8 H :    0.112646
   9 H :    0.119091
  10 H :    0.110483
  11 H :    0.114569
  12 H :    0.121637
  13 H :    0.119548
  14 H :    0.204141
  15 H :    0.110939
  16 H :    0.120258
  17 H :    0.114578
  18 H :    0.116090
  19 H :    0.117743
  20 H :    0.111524
  21 H :    0.113763

  Mayer bond orders larger than 0.100000
B(  0-C ,  1-C ) :   1.0831 B(  0-C ,  7-H ) :   0.9378 B(  0-C ,  8-H ) :   0.9440
B(  0-C ,  9-H ) :   0.9400 B(  1-C ,  2-C ) :   1.1230 B(  1-C ,  3-N ) :   1.1071
B(  1-C , 10-H ) :   0.9124 B(  2-C , 11-H ) :   0.9399 B(  2-C , 12-H ) :   0.9447
B(  2-C , 13-H ) :   0.9477 B(  3-N ,  4-C ) :   1.0263 B(  3-N , 14-H ) :   0.8790
B(  4-C ,  5-C ) :   1.1157 B(  4-C ,  6-C ) :   1.1104 B(  4-C , 15-H ) :   0.8993
B(  5-C , 16-H ) :   0.9442 B(  5-C , 17-H ) :   0.9411 B(  5-C , 18-H ) :   0.9432
B(  6-C , 19-H ) :   0.9495 B(  6-C , 20-H ) :   0.9454 B(  6-C , 21-H ) :   0.9465

Dispersion correction           -0.017955793
FINAL SINGLE POINT ENERGY      -291.670529382059

DIPOLE MOMENT
-------------

Method             : SCF
Type of density    : Electron Density
Multiplicity       :   1
Irrep              :   0
Energy             :  -291.7495297895104613 Eh
Relativity type    :
Basis              : AO
                                X                 Y                 Z
Electronic contribution:      0.316339700      -1.591980195      -1.282412438
Nuclear contribution   :     -0.217507063       1.512863938       1.604413608
                        -----------------------------------------
Total Dipole Moment    :      0.098832636      -0.079116257       0.322001170
                        -----------------------------------------
Magnitude (a.u.)       :      0.345994256
Magnitude (Debye)      :      0.879447509

Rotational constants in cm-1:             0.124475             0.058552             0.046130
Rotational constants in MHz :          3731.674303          1755.345253          1382.949216

                             ****ORCA TERMINATED NORMALLY****
TOTAL RUN TIME: 0 days 0 hours 0 minutes 10 seconds 363 msec
