                         Program Version 6.0.0  -   RELEASE  -
|  1> ! pbe def2-sv(p) def2/J RI DEFGRID1 loosescf d4 GCP(DFT/SV(P)) printgap
|  2> %output
|  3>     printlevel normal
|  4> end
|  5> * xyz 0 1
|  6> C -3.3172326672 -1.0859708603 0.1030629281
|  7> C -1.8733977931 -0.7183742069 0.4196972535
|  8> C -1.3541313033 0.3651704876 -0.5376797776
|  9> C 0.0636493056 0.7080813053 -0.1692261684
| 10> O 0.3856160415 1.5900978435 0.6001706591
| 11> O 0.9297685792 -0.0975704073 -0.7702216474
| 12> C 2.3269660188 0.045943566 -0.4647924695
| 13> C 2.7064945362 -0.7710769632 0.7608755161
| 14> H -3.3994139362 -1.4643821023 -0.912462192
| 15> H -3.666136012 -1.8538106733 0.7879942765
| 16> H -3.9622647748 -0.2166884752 0.2013439293
| 17> H -1.2394861179 -1.6025596338 0.3316956681
| 18> H -1.8009539746 -0.3497598024 1.4451425539
| 19> H -1.9667523007 1.2616291982 -0.4468792341
| 20> H -1.3775171418 -0.0074343766 -1.5608105914
| 21> H 2.8421026081 -0.3123939379 -1.356447734
| 22> H 2.5405283984 1.1066918323 -0.3016743772
| 23> H 3.7746352942 -0.6870383722 0.932130599
| 24> H 2.1782278193 -0.397233558 1.6351791989
| 25> H 2.4480811429 -1.8157490517 0.6102359503
| 26> *
| 27>
| 28>                          ****END OF INPUT****

CARTESIAN COORDINATES (ANGSTROEM)
---------------------------------
  C     -3.317233   -1.085971    0.103063
  C     -1.873398   -0.718374    0.419697
  C     -1.354131    0.365170   -0.537680
  C      0.063649    0.708081   -0.169226
  O      0.385616    1.590098    0.600171
  O      0.929769   -0.097570   -0.770222
  C      2.326966    0.045944   -0.464792
  C      2.706495   -0.771077    0.760876
  H     -3.399414   -1.464382   -0.912462
  H     -3.666136   -1.853811    0.787994
  H     -3.962265   -0.216688    0.201344
  H     -1.239486   -1.602560    0.331696
  H     -1.800954   -0.349760    1.445143
  H     -1.966752    1.261629   -0.446879
  H     -1.377517   -0.007434   -1.560811
  H      2.842103   -0.312394   -1.356448
  H      2.540528    1.106692   -0.301674
  H      3.774635   -0.687038    0.932131
  H      2.178228   -0.397234    1.635179
  H      2.448081   -1.815749    0.610236

 Total Charge           Charge          ....    0
 Multiplicity           Mult            ....    1
 Number of Electrons    NEL             ....   64
 Basis Dimension        Dim             ....  136

ORBITAL ENERGIES
----------------

  NO   OCC          E(Eh)            E(eV)
   0   2.0000     -18.796036      -511.4661
   1   2.0000     -18.729073      -509.6440
   2   2.0000     -10.002870      -272.1919
   3   2.0000      -9.945347      -270.6266
   4   2.0000      -9.896238      -269.2903
   5   2.0000      -9.895580      -269.2724
   6   2.0000      -9.886541      -269.0265
   7   2.0000      -9.880837      -268.8712
   8   2.0000      -1.002553       -27.2809
   9   2.0000      -0.906190       -24.6587
  10   2.0000      -0.729600       -19.8534
  11   2.0000      -0.696572       -18.9547
  12   2.0000      -0.639569       -17.4036
  13   2.0000      -0.587544       -15.9879
  14   2.0000      -0.535909       -14.5828
  15   2.0000      -0.494442       -13.4544
  16   2.0000      -0.451569       -12.2878
  17   2.0000      -0.433615       -11.7993
  18   2.0000      -0.421128       -11.4595
  19   2.0000      -0.403224       -10.9723
  20   2.0000      -0.388196       -10.5634
  21   2.0000      -0.375828       -10.2268
  22   2.0000      -0.355958        -9.6861
  23   2.0000      -0.346167        -9.4197
  24   2.0000      -0.344340        -9.3700
  25   2.0000      -0.331211        -9.0127
  26   2.0000      -0.313842        -8.5401
  27   2.0000      -0.300026        -8.1641
  28   2.0000      -0.298223        -8.1151
  29   2.0000      -0.288359        -7.8466
  30   2.0000      -0.253510        -6.8983
  31   2.0000      -0.213833        -5.8187
  32   0.0000      -0.017444        -0.4747
  33   0.0000       0.038015         1.0344
  34   0.0000       0.052533         1.4295
  35   0.0000       0.075296         2.0489
  36   0.0000       0.076851         2.0912

MULLIKEN ATOMIC CHARGES
-----------------------
   0 C :   -0.241728
   1 C :   -0.243119
   2 C :   -0.113861
   3 C :    0.113218
   4 O :   -0.213813
   5 O :   -0.242925
   6 C :   -0.011564
   7 C :   -0.303865
   8 H :    0.099207
   9 H :    0.106998
  10 H :    0.101435
  11 H :    0.097508
  12 H :    0.103330
  13 H :    0.098224
  14 H :    0.093538
  15 H :    0.100572
  16 H :    0.107574
  17 H :    0.111776
  18 H :    0.125292
  19 H :    0.112203
Sum of atomic charges:   -0.0000000

LOEWDIN ATOMIC CHARGES
----------------------
   0 C :   -0.338845
   1 C :   -0.225434
   2 C :   -0.241501
   3 C :    0.037426
   4 O :   -0.174896
   5 O :   -0.069242
   6 C :   -0.113193
   7 C :   -0.356304
   8 H :    0.118384
   9 H :    0.121830
  10 H :    0.119403
  11 H :    0.118193
  12 H :    0.121926
  13 H :    0.133509
  14 H :    0.129543
  15 H :    0.116431
  16 H :    0.119384
  17 H :    0.129969
  18 H :    0.130026
  19 H :    0.123392

  Mayer bond orders larger than 0.100000
B(  0-C ,  1-C ) :   1.1578 B(  0-C ,  8-H ) :   0.9533 B(  0-C ,  9-H ) :   0.9516
B(  0-C , 10-H ) :   0.9533 B(  1-C ,  2-C ) :   1.1291 B(  1-C , 11-H ) :   0.9262
B(  1-C , 12-H ) :   0.9267 B(  2-C ,  3-C ) :   1.0259 B(  2-C , 13-H ) :   0.9030
B(  2-C , 14-H ) :   0.8994 B(  3-C ,  4-O ) :   2.0433 B(  3-C ,  5-O ) :   1.2050
B(  5-O ,  6-C ) :   0.9228 B(  6-C ,  7-C ) :   1.1736 B(  6-C , 15-H ) :   0.9373
B(  6-C , 16-H ) :   0.9123 B(  7-C , 17-H ) :   0.9446 B(  7-C , 18-H ) :   0.9462
B(  7-C , 19-H ) :   0.9492

Dispersion correction           -0.014842149
FINAL SINGLE POINT ENERGY      -385.457753226346

DIPOLE MOMENT
-------------

Method             : SCF
Type of density    : Electron Density
Multiplicity       :   1
Irrep              :   0
Energy             :  -385.5326155957630476 Eh
Relativity type    :
Basis              : AO
                                X                 Y                 Z
Electronic contribution:      3.485600992       5.255403121      -1.589625361
Nuclear contribution   :     -3.385054356      -5.924652971       1.278496343
                        -----------------------------------------
Total Dipole Moment    :      0.100546636      -0.669249850      -0.311129019
                        -----------------------------------------
Magnitude (a.u.)       :      0.744853176
Magnitude (Debye)      :      1.893266313

Rotational constants in cm-1:             0.131085             0.033353             0.030733
Rotational constants in MHz :          3929.821634           999.885005           921.340496

                             ****ORCA TERMINATED NORMALLY****
TOTAL RUN TIME: 0 days 0 hours 0 minutes 10 seconds 709 msec
