                         Program Version 6.0.0  -   RELEASE  -
|  1> ! r2scan-3c def2/J RI DEFGRID2 scfconv6 printgap
|  2> %output
|  3>     printlevel normal
|  4> end
|  5> * xyz 0 1
|  6> C 1.6569884524 -0.7538923489 0.5140119645
|  7> C 1.3646843926 0.5319490429 -0.2512165863
|  8> C -0.0349969798 0.5830463341 -0.8672588745
|  9> C -1.1776284544 0.5586013765 0.1558928062
| 10> N -1.7120922113 -0.7897236904 0.3107298835
| 11> H 1.0392360754 -0.8265141017 1.4061443106
| 12> H 1.4709187186 -1.6214616688 -0.1151925781
| 13> H 2.6981010005 -0.7748722865 0.8285011761
| 14> H 1.4922191537 1.386658139 0.4179642574
| 15> H 2.0941411148 0.6347837779 -1.0577129815
| 16> H -0.1098931806 1.4980360253 -1.4569551203
| 17> H -0.1725998664 -0.2615946404 -1.5436800492
| 18> H -2.0030844616 1.1793798018 -0.2048033939
| 19> H -0.8261804767 0.9975748042 1.1055933123
| 20> H -2.4607458448 -0.7860210679 0.9942398083
| 21> H -0.9874723628 -1.4112319932 0.6532673651
| 22> *
| 23>
| 24>                          ****END OF INPUT****

CARTESIAN COORDINATES (ANGSTROEM)
---------------------------------
  C      1.656988   -0.753892    0.514012
  C      1.364684    0.531949   -0.251217
  C     -0.034997    0.583046   -0.867259
  C     -1.177628    0.558601    0.155893
  N     -1.712092   -0.789724    0.310730
  H      1.039236   -0.826514    1.406144
  H      1.470919   -1.621462   -0.115193
  H      2.698101   -0.774872    0.828501
  H      1.492219    1.386658    0.417964
  H      2.094141    0.634784   -1.057713
  H     -0.109893    1.498036   -1.456955
  H     -0.172600   -0.261595   -1.543680
  H     -2.003084    1.179380   -0.204803
  H     -0.826180    0.997575    1.105593
  H     -2.460746   -0.786021    0.994240
  H     -0.987472   -1.411232    0.653267

 Total Charge           Charge          ....    0
 Multiplicity           Mult            ....    1
 Number of Electrons    NEL             ....   42
 Basis Dimension        Dim             ....  155

ORBITAL ENERGIES
----------------

  NO   OCC          E(Eh)            E(eV)
   0   2.0000     -14.131915      -384.5490
   1   2.0000     -10.046659      -273.3835
   2   2.0000     -10.024550      -272.7819
   3   2.0000     -10.019034      -272.6318
   4   2.0000     -10.018728      -272.6234
   5   2.0000      -0.843983       -22.9659
   6   2.0000      -0.750857       -20.4319
   7   2.0000      -0.672853       -18.3093
   8   2.0000      -0.592675       -16.1275
   9   2.0000      -0.533626       -14.5207
  10   2.0000      -0.458453       -12.4751
  11   2.0000      -0.436586       -11.8801
  12   2.0000      -0.407408       -11.0861
  13   2.0000      -0.397320       -10.8116
  14   2.0000      -0.357669        -9.7327
  15   2.0000      -0.356002        -9.6873
  16   2.0000      -0.338577        -9.2132
  17   2.0000      -0.299305        -8.1445
  18   2.0000      -0.294835        -8.0229
  19   2.0000      -0.285106        -7.7581
  20   2.0000      -0.202323        -5.5055
  21   0.0000       0.074207         2.0193
  22   0.0000       0.103579         2.8185
  23   0.0000       0.116110         3.1595
  24   0.0000       0.119112         3.2412
  25   0.0000       0.139262         3.7895

MULLIKEN ATOMIC CHARGES
-----------------------
   0 C :   -0.500331
   1 C :   -0.259749
   2 C :   -0.246812
   3 C :   -0.211273
   4 N :   -0.577981
   5 H :    0.146885
   6 H :    0.155077
   7 H :    0.148998
   8 H :    0.141236
   9 H :    0.140312
  10 H :    0.141797
  11 H :    0.156844
  12 H :    0.139084
  13 H :    0.128658
  14 H :    0.239272
  15 H :    0.257982
Sum of atomic charges:    0.0000000

LOEWDIN ATOMIC CHARGES
----------------------
   0 C :   -0.431331
   1 C :   -0.317750
   2 C :   -0.290027
   3 C :   -0.075256
   4 N :   -0.752005
   5 H :    0.147010
   6 H :    0.150897
   7 H :    0.151733
   8 H :    0.150863
   9 H :    0.151685
  10 H :    0.157337
  11 H :    0.167337
  12 H :    0.171319
  13 H :    0.148244
  14 H :    0.234802
  15 H :    0.235144

  Mayer bond orders larger than 0.100000
B(  0-C ,  1-C ) :   0.8756 B(  0-C ,  5-H ) :   0.9764 B(  0-C ,  6-H ) :   0.9824
B(  0-C ,  7-H ) :   0.9672 B(  1-C ,  2-C ) :   0.9110 B(  1-C ,  8-H ) :   0.9846
B(  1-C ,  9-H ) :   0.9722 B(  2-C ,  3-C ) :   0.8804 B(  2-C , 10-H ) :   0.9629
B(  2-C , 11-H ) :   0.9884 B(  3-C ,  4-N ) :   0.9150 B(  3-C , 12-H ) :   0.9728
B(  3-C , 13-H ) :   0.9805 B(  4-N , 14-H ) :   0.9188 B(  4-N , 15-H ) :   0.9133

Dispersion correction           -0.003596367
FINAL SINGLE POINT ENERGY      -213.719517597815

DIPOLE MOMENT
-------------

Method             : SCF
Type of density    : Electron Density
Multiplicity       :   1
Irrep              :   0
Energy             :  -213.7266127033738314 Eh
Relativity type    :
Basis              : AO
                                X                 Y                 Z
Electronic contribution:     -1.893456956       0.144403593      -0.576721665
Nuclear contribution   :      2.087099491       0.009510213       0.965534070
                        -----------------------------------------
Total Dipole Moment    :      0.193642534       0.153913806       0.388812405
                        -----------------------------------------
Magnitude (a.u.)       :      0.460827492
Magnitude (Debye)      :      1.171330396

Rotational constants in cm-1:             0.255329             0.108643             0.086082
Rotational constants in MHz :          7654.560100          3257.022924          2580.663311

                             ****ORCA TERMINATED NORMALLY****
TOTAL RUN TIME: 0 days 0 hours 0 minutes 15 seconds 45 msec
