                         Program Version 6.0.0  -   RELEASE  -
|  1> ! r2scan-3c def2/J RI DEFGRID2 scfconv6 printgap
|  2> %output
|  3>     printlevel normal
|  4> end
|  5> %cpcm
|  6>     smd true
|  7>     smdsolvent "water"
|  8> end
|  9> * xyz 0 1
| 10> C 1.6569884524 -0.7538923489 0.5140119645
| 11> C 1.3646843926 0.5319490429 -0.2512165863
| 12> C -0.0349969798 0.5830463341 -0.8672588745
| 13> C -1.1776284544 0.5586013765 0.1558928062
| 14> N -1.7120922113 -0.7897236904 0.3107298835
| 15> H 1.0392360754 -0.8265141017 1.4061443106
| 16> H 1.4709187186 -1.6214616688 -0.1151925781
| 17> H 2.6981010005 -0.7748722865 0.8285011761
| 18> H 1.4922191537 1.386658139 0.4179642574
| 19> H 2.0941411148 0.6347837779 -1.0577129815
| 20> H -0.1098931806 1.4980360253 -1.4569551203
| 21> H -0.1725998664 -0.2615946404 -1.5436800492
| 22> H -2.0030844616 1.1793798018 -0.2048033939
| 23> H -0.8261804767 0.9975748042 1.1055933123
| 24> H -2.4607458448 -0.7860210679 0.9942398083
| 25> H -0.9874723628 -1.4112319932 0.6532673651
| 26> *
| 27>
| 28>                          ****END OF INPUT****

CARTESIAN COORDINATES (ANGSTROEM)
---------------------------------
  C      1.656988   -0.753892    0.514012
  C      1.364684    0.531949   -0.251217
  C     -0.034997    0.583046   -0.867259
  C     -1.177628    0.558601    0.155893
  N     -1.712092   -0.789724    0.310730
  H      1.039236   -0.826514    1.406144
  H      1.470919   -1.621462   -0.115193
  H      2.698101   -0.774872    0.828501
  H      1.492219    1.386658    0.417964
  H      2.094141    0.634784   -1.057713
  H     -0.109893    1.498036   -1.456955
  H     -0.172600   -0.261595   -1.543680
  H     -2.003084    1.179380   -0.204803
  H     -0.826180    0.997575    1.105593
  H     -2.460746   -0.786021    0.994240
  H     -0.987472   -1.411232    0.653267

 Total Charge           Charge          ....    0
 Multiplicity           Mult            ....    1
 Number of Electrons    NEL             ....   42
 Basis Dimension        Dim             ....  155

ORBITAL ENERGIES
----------------

  NO   OCC          E(Eh)            E(eV)
   0   2.0000     -14.126510      -384.4019
   1   2.0000     -10.040481      -273.2154
   2   2.0000     -10.015991      -272.5490
   3   2.0000     -10.012742      -272.4606
   4   2.0000     -10.007695      -272.3232
   5   2.0000      -0.838737       -22.8232
   6   2.0000      -0.742783       -20.2122
   7   2.0000      -0.665086       -18.0979
   8   2.0000      -0.584919       -15.9164
   9   2.0000      -0.526594       -14.3294
  10   2.0000      -0.451512       -12.2863
  11   2.0000      -0.429766       -11.6945
  12   2.0000      -0.399343       -10.8667
  13   2.0000      -0.389148       -10.5893
  14   2.0000      -0.350831        -9.5466
  15   2.0000      -0.347078        -9.4445
  16   2.0000      -0.330192        -8.9850
  17   2.0000      -0.291767        -7.9394
  18   2.0000      -0.287171        -7.8143
  19   2.0000      -0.277159        -7.5419
  20   2.0000      -0.203242        -5.5305
  21   0.0000       0.085066         2.3148
  22   0.0000       0.111811         3.0425
  23   0.0000       0.126442         3.4407
  24   0.0000       0.126899         3.4531
  25   0.0000       0.144921         3.9435

MULLIKEN ATOMIC CHARGES
-----------------------
   0 C :   -0.525513
   1 C :   -0.274145
   2 C :   -0.253818
   3 C :   -0.232178
   4 N :   -0.666148
   5 H :    0.161297
   6 H :    0.161713
   7 H :    0.157287
   8 H :    0.149595
   9 H :    0.147557
  10 H :    0.153745
  11 H :    0.149615
  12 H :    0.152222
  13 H :    0.140189
  14 H :    0.281442
  15 H :    0.297138
Sum of atomic charges:    0.0000000

LOEWDIN ATOMIC CHARGES
----------------------
   0 C :   -0.436921
   1 C :   -0.319409
   2 C :   -0.294679
   3 C :   -0.078123
   4 N :   -0.774614
   5 H :    0.152231
   6 H :    0.153268
   7 H :    0.153062
   8 H :    0.153410
   9 H :    0.153081
  10 H :    0.160111
  11 H :    0.163852
  12 H :    0.173398
  13 H :    0.153970
  14 H :    0.244147
  15 H :    0.243215

  Mayer bond orders larger than 0.100000
B(  0-C ,  1-C ) :   0.8751 B(  0-C ,  5-H ) :   0.9723 B(  0-C ,  6-H ) :   0.9794
B(  0-C ,  7-H ) :   0.9656 B(  1-C ,  2-C ) :   0.9103 B(  1-C ,  8-H ) :   0.9839
B(  1-C ,  9-H ) :   0.9730 B(  2-C ,  3-C ) :   0.8672 B(  2-C , 10-H ) :   0.9635
B(  2-C , 11-H ) :   0.9879 B(  3-C ,  4-N ) :   0.9256 B(  3-C , 12-H ) :   0.9739
B(  3-C , 13-H ) :   0.9836 B(  4-N , 14-H ) :   0.9023 B(  4-N , 15-H ) :   0.8980

Dispersion correction           -0.003596367
FINAL SINGLE POINT ENERGY      -213.724531784675

DIPOLE MOMENT
-------------

Method             : SCF
Type of density    : Electron Density
Multiplicity       :   1
Irrep              :   0
Energy             :  -213.7316268902342813 Eh
Relativity type    :
Basis              : AO
                                X                 Y                 Z
Electronic contribution:     -1.834771748       0.201339403      -0.390206464
Nuclear contribution   :      2.087099491       0.009510213       0.965534070
                        -----------------------------------------
Total Dipole Moment    :      0.252327743       0.210849615       0.575327606
                        -----------------------------------------
Magnitude (a.u.)       :      0.662667869
Magnitude (Debye)      :      1.684367863

Rotational constants in cm-1:             0.255329             0.108643             0.086082
Rotational constants in MHz :          7654.560100          3257.022924          2580.663311

                             ****ORCA TERMINATED NORMALLY****
TOTAL RUN TIME: 0 days 0 hours 0 minutes 19 seconds 343 msec
