                         Program Version 6.0.1  -  RELEASE   -
|  1> ! pbe def2-sv(p) def2/J RI DEFGRID1 loosescf d4 GCP(DFT/SV(P)) printgap
|  2> %output
|  3>     printlevel normal
|  4> end
|  5> * xyz 0 1
|  6> C -3.9179538908 0.1835591546 1.850366932
|  7> C -3.3305154965 0.4441929495 0.4654256403
|  8> H -3.599329718 1.4419473342 0.1119114465
|  9> C -1.8248082093 0.3002862699 0.4078078431
| 10> C -1.1605939897 -0.7109775539 1.0915903072
| 11> C 0.2122144851 -0.8366153804 1.0054723349
| 12> C 0.9807259633 0.0339630606 0.2334412662
| 13> C 0.2871165373 1.0255857259 -0.4526113282
| 14> C -1.0833010684 1.1680047451 -0.3835560336
| 15> F 0.9662337492 1.8920772976 -1.2615801001
| 16> C 2.442634209 -0.1111691507 0.1532357961
| 17> C 3.0087155718 -1.3749956272 -0.001022087
| 18> C 4.3811134956 -1.5242053115 -0.0713535225
| 19> C 5.2074583758 -0.4157465332 0.0164429381
| 20> C 4.6533438142 0.84354904 0.173648512
| 21> C 3.2805713398 0.9974663592 0.2406694474
| 22> C -3.8495084689 -0.5588660434 -0.5505314675
| 23> O -4.0972625919 -1.7192350875 -0.31318886
| 24> O -3.9584426531 -0.0286235685 -1.7563833843
| 25> H -3.3383630087 0.7048186857 2.606138129
| 26> H -4.9458292253 0.5340089968 1.8878283083
| 27> H -3.9168732727 -0.8816142593 2.0656829961
| 28> H -1.719493326 -1.4094659179 1.6921395633
| 29> H 0.712848687 -1.6161973397 1.5578007595
| 30> H -1.5581184656 1.9518360499 -0.9524811526
| 31> H 2.3660913565 -2.2384480943 -0.0862299759
| 32> H 4.8076090521 -2.5079564203 -0.1969314688
| 33> H 6.2790087429 -0.5327403382 -0.0385162549
| 34> H 5.2918601188 1.7111151679 0.2449282419
| 35> H 2.8570438704 1.9818877254 0.3729413405
| 36> H -4.2476227103 -0.6713240965 -2.4335527371
| 37> *
| 38>
| 39>                          ****END OF INPUT****

CARTESIAN COORDINATES (ANGSTROEM)
---------------------------------
  C     -3.917954    0.183559    1.850367
  C     -3.330515    0.444193    0.465426
  H     -3.599330    1.441947    0.111911
  C     -1.824808    0.300286    0.407808
  C     -1.160594   -0.710978    1.091590
  C      0.212214   -0.836615    1.005472
  C      0.980726    0.033963    0.233441
  C      0.287117    1.025586   -0.452611
  C     -1.083301    1.168005   -0.383556
  F      0.966234    1.892077   -1.261580
  C      2.442634   -0.111169    0.153236
  C      3.008716   -1.374996   -0.001022
  C      4.381113   -1.524205   -0.071354
  C      5.207458   -0.415747    0.016443
  C      4.653344    0.843549    0.173649
  C      3.280571    0.997466    0.240669
  C     -3.849508   -0.558866   -0.550531
  O     -4.097263   -1.719235   -0.313189
  O     -3.958443   -0.028624   -1.756383
  H     -3.338363    0.704819    2.606138
  H     -4.945829    0.534009    1.887828
  H     -3.916873   -0.881614    2.065683
  H     -1.719493   -1.409466    1.692140
  H      0.712849   -1.616197    1.557801
  H     -1.558118    1.951836   -0.952481
  H      2.366091   -2.238448   -0.086230
  H      4.807609   -2.507956   -0.196931
  H      6.279009   -0.532740   -0.038516
  H      5.291860    1.711115    0.244928
  H      2.857044    1.981888    0.372941
  H     -4.247623   -0.671324   -2.433553

 Total Charge           Charge          ....    0
 Multiplicity           Mult            ....    1
 Number of Electrons    NEL             ....  128
 Basis Dimension        Dim             ....  278

ORBITAL ENERGIES
----------------

  NO   OCC          E(Eh)            E(eV)
   0   2.0000     -24.269895      -660.4174
   1   2.0000     -18.807145      -511.7684
   2   2.0000     -18.744283      -510.0579
   3   2.0000     -10.018568      -272.6191
   4   2.0000      -9.975670      -271.4518
   5   2.0000      -9.919990      -269.9367
   6   2.0000      -9.918496      -269.8960
   7   2.0000      -9.911773      -269.7131
   8   2.0000      -9.908510      -269.6243
   9   2.0000      -9.903198      -269.4797
  10   2.0000      -9.900420      -269.4041
  11   2.0000      -9.897165      -269.3156
  12   2.0000      -9.895245      -269.2633
  13   2.0000      -9.894634      -269.2467
  14   2.0000      -9.893958      -269.2283
  15   2.0000      -9.893674      -269.2206
  16   2.0000      -9.893381      -269.2126
  17   2.0000      -9.886921      -269.0368
  18   2.0000      -1.094626       -29.7863
  19   2.0000      -1.015924       -27.6447
  20   2.0000      -0.918875       -25.0039
  21   2.0000      -0.799921       -21.7669
  22   2.0000      -0.779161       -21.2021
  23   2.0000      -0.740106       -20.1393
  24   2.0000      -0.696944       -18.9648
  25   2.0000      -0.678117       -18.4525
  26   2.0000      -0.671978       -18.2855
  27   2.0000      -0.647878       -17.6296
  28   2.0000      -0.620468       -16.8838
  29   2.0000      -0.576232       -15.6801
  30   2.0000      -0.564606       -15.3637
  31   2.0000      -0.539092       -14.6694
  32   2.0000      -0.537001       -14.6125
  33   2.0000      -0.523720       -14.2511
  34   2.0000      -0.487729       -13.2718
  35   2.0000      -0.467811       -12.7298
  36   2.0000      -0.457108       -12.4385
  37   2.0000      -0.438515       -11.9326
  38   2.0000      -0.436353       -11.8738
  39   2.0000      -0.421753       -11.4765
  40   2.0000      -0.416946       -11.3457
  41   2.0000      -0.410614       -11.1734
  42   2.0000      -0.401424       -10.9233
  43   2.0000      -0.394826       -10.7438
  44   2.0000      -0.391948       -10.6654
  45   2.0000      -0.381336       -10.3767
  46   2.0000      -0.375393       -10.2150
  47   2.0000      -0.360199        -9.8015
  48   2.0000      -0.356649        -9.7049
  49   2.0000      -0.350476        -9.5369
  50   2.0000      -0.341594        -9.2952
  51   2.0000      -0.331051        -9.0084
  52   2.0000      -0.328278        -8.9329
  53   2.0000      -0.318157        -8.6575
  54   2.0000      -0.315779        -8.5928
  55   2.0000      -0.308948        -8.4069
  56   2.0000      -0.302248        -8.2246
  57   2.0000      -0.292303        -7.9540
  58   2.0000      -0.279764        -7.6128
  59   2.0000      -0.254722        -6.9313
  60   2.0000      -0.232555        -6.3281
  61   2.0000      -0.231772        -6.3068
  62   2.0000      -0.225846        -6.1456
  63   2.0000      -0.206998        -5.6327
  64   0.0000      -0.065697        -1.7877
  65   0.0000      -0.039251        -1.0681
  66   0.0000      -0.036364        -0.9895
  67   0.0000      -0.028925        -0.7871
  68   0.0000      -0.003396        -0.0924

MULLIKEN ATOMIC CHARGES
-----------------------
   0 C :   -0.226279
   1 C :   -0.142755
   2 H :    0.083385
   3 C :    0.106326
   4 C :   -0.097643
   5 C :   -0.115129
   6 C :    0.031131
   7 C :    0.266948
   8 C :   -0.225940
   9 F :   -0.172400
  10 C :    0.114104
  11 C :   -0.111999
  12 C :   -0.049188
  13 C :   -0.045575
  14 C :   -0.052152
  15 C :   -0.097788
  16 C :    0.124919
  17 O :   -0.184820
  18 O :   -0.282853
  19 H :    0.111329
  20 H :    0.108041
  21 H :    0.130902
  22 H :    0.049870
  23 H :    0.051105
  24 H :    0.046528
  25 H :    0.049700
  26 H :    0.053289
  27 H :    0.054843
  28 H :    0.053990
  29 H :    0.049977
  30 H :    0.318133
Sum of atomic charges:    0.0000000

LOEWDIN ATOMIC CHARGES
----------------------
   0 C :   -0.323053
   1 C :   -0.153886
   2 H :    0.134410
   3 C :   -0.023187
   4 C :   -0.123994
   5 C :   -0.101543
   6 C :   -0.055368
   7 C :    0.079895
   8 C :   -0.143710
   9 F :   -0.055370
  10 C :   -0.028267
  11 C :   -0.113733
  12 C :   -0.120882
  13 C :   -0.122342
  14 C :   -0.120136
  15 C :   -0.108575
  16 C :    0.037847
  17 O :   -0.164973
  18 O :   -0.198791
  19 H :    0.126572
  20 H :    0.126251
  21 H :    0.129649
  22 H :    0.131025
  23 H :    0.129988
  24 H :    0.136198
  25 H :    0.125649
  26 H :    0.124570
  27 H :    0.124094
  28 H :    0.124872
  29 H :    0.125549
  30 H :    0.301241

  Mayer bond orders larger than 0.100000
B(  0-C ,  1-C ) :   1.1143 B(  0-C , 19-H ) :   0.9500 B(  0-C , 20-H ) :   0.9480
B(  0-C , 21-H ) :   0.9235 B(  1-C ,  2-H ) :   0.8766 B(  1-C ,  3-C ) :   1.0194
B(  1-C , 16-C ) :   0.9123 B(  3-C ,  4-C ) :   1.3669 B(  3-C ,  8-C ) :   1.3197
B(  4-C ,  5-C ) :   1.3518 B(  4-C , 22-H ) :   0.9609 B(  5-C ,  6-C ) :   1.3586
B(  5-C , 23-H ) :   0.9579 B(  6-C ,  7-C ) :   1.3381 B(  6-C , 10-C ) :   0.9744
B(  7-C ,  8-C ) :   1.3277 B(  7-C ,  9-F ) :   1.1022 B(  8-C , 24-H ) :   0.9666
B( 10-C , 11-C ) :   1.3785 B( 10-C , 15-C ) :   1.3773 B( 11-C , 12-C ) :   1.3722
B( 11-C , 25-H ) :   0.9582 B( 12-C , 13-C ) :   1.3763 B( 12-C , 26-H ) :   0.9637
B( 13-C , 14-C ) :   1.3741 B( 13-C , 27-H ) :   0.9655 B( 14-C , 15-C ) :   1.3757
B( 14-C , 28-H ) :   0.9631 B( 15-C , 29-H ) :   0.9606 B( 16-C , 17-O ) :   2.0993
B( 16-C , 18-O ) :   1.3032 B( 18-O , 30-H ) :   0.8181

Dispersion correction           -0.040104089
FINAL SINGLE POINT ENERGY      -828.018460178290

DIPOLE MOMENT
-------------

Method             : SCF
Type of density    : Electron Density
Multiplicity       :   1
Irrep              :   0
Energy             :  -828.1082353424235407 Eh
Relativity type    :
Basis              : AO
                                X                 Y                 Z
Electronic contribution:      1.798171800       3.401924187      -7.628187965
Nuclear contribution   :     -1.963166807      -3.216323956       7.547497358
                        -----------------------------------------
Total Dipole Moment    :     -0.164995007       0.185600231      -0.080690607
                        -----------------------------------------
Magnitude (a.u.)       :      0.261116396
Magnitude (Debye)      :      0.663705132

Rotational constants in cm-1:             0.036651             0.006478             0.006171
Rotational constants in MHz :          1098.760131           194.209870           184.989616

                             ****ORCA TERMINATED NORMALLY****
TOTAL RUN TIME: 0 days 0 hours 0 minutes 34 seconds 959 msec
