                         Program Version 6.0.0  -   RELEASE  -
|  1> ! r2scan-3c def2/J RI DEFGRID2 scfconv6 printgap
|  2> %output
|  3>     printlevel normal
|  4> end
|  5> * xyz 0 1
|  6> C -3.8301766721 0.3208396193 0.3904489742
|  7> C -2.6691765043 -0.5879942083 0.0047841937
|  8> C -1.3357398706 0.1527609554 0.0656999716
|  9> C -0.1627314551 -0.7612133377 -0.307417507
| 10> C 1.1209480367 0.024701624 -0.3365963876
| 11> O 1.3318982776 0.9845941129 -1.0484093113
| 12> O 2.0034813802 -0.445205267 0.5368258691
| 13> C 3.2731655698 0.2070692556 0.6386709419
| 14> H -3.8854588655 1.173458045 -0.2824699398
| 15> H -4.7709535312 -0.2208731338 0.3383461964
| 16> H -3.7026431118 0.6933019919 1.4042104066
| 17> H -2.6369070808 -1.4437978127 0.6815866522
| 18> H -2.8252998591 -0.9670496514 -1.0068387268
| 19> H -1.1818028539 0.5428171256 1.074169302
| 20> H -1.3503009809 1.0016056269 -0.6213878137
| 21> H -0.3313013851 -1.1681187909 -1.3059850574
| 22> H -0.0607682952 -1.5773953241 0.4063867583
| 23> H 3.9516610401 -0.2031166961 -0.1094105026
| 24> H 3.6372330092 0.0009572295 1.6407567222
| 25> H 3.1556472514 1.2784578392 0.4723061991
| 26> *
| 27>
| 28>                          ****END OF INPUT****

CARTESIAN COORDINATES (ANGSTROEM)
---------------------------------
  C     -3.830177    0.320840    0.390449
  C     -2.669177   -0.587994    0.004784
  C     -1.335740    0.152761    0.065700
  C     -0.162731   -0.761213   -0.307418
  C      1.120948    0.024702   -0.336596
  O      1.331898    0.984594   -1.048409
  O      2.003481   -0.445205    0.536826
  C      3.273166    0.207069    0.638671
  H     -3.885459    1.173458   -0.282470
  H     -4.770954   -0.220873    0.338346
  H     -3.702643    0.693302    1.404210
  H     -2.636907   -1.443798    0.681587
  H     -2.825300   -0.967050   -1.006839
  H     -1.181803    0.542817    1.074169
  H     -1.350301    1.001606   -0.621388
  H     -0.331301   -1.168119   -1.305985
  H     -0.060768   -1.577395    0.406387
  H      3.951661   -0.203117   -0.109411
  H      3.637233    0.000957    1.640757
  H      3.155647    1.278458    0.472306

 Total Charge           Charge          ....    0
 Multiplicity           Mult            ....    1
 Number of Electrons    NEL             ....   64
 Basis Dimension        Dim             ....  222

ORBITAL ENERGIES
----------------

  NO   OCC          E(Eh)            E(eV)
   0   2.0000     -18.999835      -517.0118
   1   2.0000     -18.927417      -515.0412
   2   2.0000     -10.151636      -276.2401
   3   2.0000     -10.085998      -274.4540
   4   2.0000     -10.041273      -273.2369
   5   2.0000     -10.033431      -273.0235
   6   2.0000     -10.029627      -272.9200
   7   2.0000     -10.018663      -272.6217
   8   2.0000      -1.072767       -29.1915
   9   2.0000      -0.975421       -26.5426
  10   2.0000      -0.778044       -21.1717
  11   2.0000      -0.729169       -19.8417
  12   2.0000      -0.686829       -18.6896
  13   2.0000      -0.616066       -16.7640
  14   2.0000      -0.554050       -15.0765
  15   2.0000      -0.532005       -14.4766
  16   2.0000      -0.465773       -12.6743
  17   2.0000      -0.458693       -12.4817
  18   2.0000      -0.448858       -12.2141
  19   2.0000      -0.434628       -11.8268
  20   2.0000      -0.406094       -11.0504
  21   2.0000      -0.390657       -10.6303
  22   2.0000      -0.386312       -10.5121
  23   2.0000      -0.366756        -9.9799
  24   2.0000      -0.347316        -9.4510
  25   2.0000      -0.327675        -8.9165
  26   2.0000      -0.322672        -8.7803
  27   2.0000      -0.309762        -8.4290
  28   2.0000      -0.300511        -8.1773
  29   2.0000      -0.299759        -8.1569
  30   2.0000      -0.272823        -7.4239
  31   2.0000      -0.236053        -6.4233
  32   0.0000      -0.014786        -0.4023
  33   0.0000       0.067244         1.8298
  34   0.0000       0.097911         2.6643
  35   0.0000       0.099540         2.7086
  36   0.0000       0.120567         3.2808

MULLIKEN ATOMIC CHARGES
-----------------------
   0 C :   -0.466010
   1 C :   -0.235161
   2 C :   -0.274411
   3 C :   -0.331847
   4 C :    0.407384
   5 O :   -0.433864
   6 O :   -0.191902
   7 C :   -0.297838
   8 H :    0.144723
   9 H :    0.148064
  10 H :    0.142609
  11 H :    0.135801
  12 H :    0.138988
  13 H :    0.138670
  14 H :    0.168345
  15 H :    0.165269
  16 H :    0.162853
  17 H :    0.152495
  18 H :    0.149462
  19 H :    0.176369
Sum of atomic charges:   -0.0000000

LOEWDIN ATOMIC CHARGES
----------------------
   0 C :   -0.422795
   1 C :   -0.313834
   2 C :   -0.282744
   3 C :   -0.227575
   4 C :    0.355622
   5 O :   -0.433883
   6 O :   -0.603577
   7 C :   -0.045741
   8 H :    0.151380
   9 H :    0.150912
  10 H :    0.150197
  11 H :    0.151347
  12 H :    0.152011
  13 H :    0.157963
  14 H :    0.168671
  15 H :    0.180306
  16 H :    0.177347
  17 H :    0.172980
  18 H :    0.175454
  19 H :    0.185959

  Mayer bond orders larger than 0.100000
B(  0-C ,  1-C ) :   0.9031 B(  0-C ,  8-H ) :   0.9825 B(  0-C ,  9-H ) :   0.9751
B(  0-C , 10-H ) :   0.9826 B(  1-C ,  2-C ) :   0.9189 B(  1-C , 11-H ) :   0.9684
B(  1-C , 12-H ) :   0.9792 B(  2-C ,  3-C ) :   0.9183 B(  2-C , 13-H ) :   0.9621
B(  2-C , 14-H ) :   0.9685 B(  3-C ,  4-C ) :   0.9708 B(  3-C , 15-H ) :   0.9651
B(  3-C , 16-H ) :   0.9814 B(  4-C ,  5-O ) :   1.8142 B(  4-C ,  6-O ) :   1.0539
B(  6-O ,  7-C ) :   0.8465 B(  7-C , 17-H ) :   0.9594 B(  7-C , 18-H ) :   0.9700
B(  7-C , 19-H ) :   0.9651

Dispersion correction           -0.004876615
FINAL SINGLE POINT ENERGY      -386.230212045250

DIPOLE MOMENT
-------------

Method             : SCF
Type of density    : Electron Density
Multiplicity       :   1
Irrep              :   0
Energy             :  -386.2372924734225990 Eh
Relativity type    :
Basis              : AO
                                X                 Y                 Z
Electronic contribution:      9.362927182       0.323448110      -1.963448996
Nuclear contribution   :     -9.333048765      -0.826739004       2.517649498
                        -----------------------------------------
Total Dipole Moment    :      0.029878417      -0.503290894       0.554200502
                        -----------------------------------------
Magnitude (a.u.)       :      0.749221356
Magnitude (Debye)      :      1.904369344

Rotational constants in cm-1:             0.199511             0.025542             0.024618
Rotational constants in MHz :          5981.179630           765.740141           738.034064

                             ****ORCA TERMINATED NORMALLY****
TOTAL RUN TIME: 0 days 0 hours 0 minutes 27 seconds 525 msec
