                         Program Version 6.0.0  -   RELEASE  -
|  1> ! r2scan-3c def2/J RI DEFGRID2 scfconv6 printgap
|  2> %output
|  3>     printlevel normal
|  4> end
|  5> %cpcm
|  6>     smd true
|  7>     smdsolvent "water"
|  8> end
|  9> * xyz 0 1
| 10> C -3.8301766721 0.3208396193 0.3904489742
| 11> C -2.6691765043 -0.5879942083 0.0047841937
| 12> C -1.3357398706 0.1527609554 0.0656999716
| 13> C -0.1627314551 -0.7612133377 -0.307417507
| 14> C 1.1209480367 0.024701624 -0.3365963876
| 15> O 1.3318982776 0.9845941129 -1.0484093113
| 16> O 2.0034813802 -0.445205267 0.5368258691
| 17> C 3.2731655698 0.2070692556 0.6386709419
| 18> H -3.8854588655 1.173458045 -0.2824699398
| 19> H -4.7709535312 -0.2208731338 0.3383461964
| 20> H -3.7026431118 0.6933019919 1.4042104066
| 21> H -2.6369070808 -1.4437978127 0.6815866522
| 22> H -2.8252998591 -0.9670496514 -1.0068387268
| 23> H -1.1818028539 0.5428171256 1.074169302
| 24> H -1.3503009809 1.0016056269 -0.6213878137
| 25> H -0.3313013851 -1.1681187909 -1.3059850574
| 26> H -0.0607682952 -1.5773953241 0.4063867583
| 27> H 3.9516610401 -0.2031166961 -0.1094105026
| 28> H 3.6372330092 0.0009572295 1.6407567222
| 29> H 3.1556472514 1.2784578392 0.4723061991
| 30> *
| 31>
| 32>                          ****END OF INPUT****

CARTESIAN COORDINATES (ANGSTROEM)
---------------------------------
  C     -3.830177    0.320840    0.390449
  C     -2.669177   -0.587994    0.004784
  C     -1.335740    0.152761    0.065700
  C     -0.162731   -0.761213   -0.307418
  C      1.120948    0.024702   -0.336596
  O      1.331898    0.984594   -1.048409
  O      2.003481   -0.445205    0.536826
  C      3.273166    0.207069    0.638671
  H     -3.885459    1.173458   -0.282470
  H     -4.770954   -0.220873    0.338346
  H     -3.702643    0.693302    1.404210
  H     -2.636907   -1.443798    0.681587
  H     -2.825300   -0.967050   -1.006839
  H     -1.181803    0.542817    1.074169
  H     -1.350301    1.001606   -0.621388
  H     -0.331301   -1.168119   -1.305985
  H     -0.060768   -1.577395    0.406387
  H      3.951661   -0.203117   -0.109411
  H      3.637233    0.000957    1.640757
  H      3.155647    1.278458    0.472306

 Total Charge           Charge          ....    0
 Multiplicity           Mult            ....    1
 Number of Electrons    NEL             ....   64
 Basis Dimension        Dim             ....  222

ORBITAL ENERGIES
----------------

  NO   OCC          E(Eh)            E(eV)
   0   2.0000     -19.005122      -517.1557
   1   2.0000     -18.943401      -515.4761
   2   2.0000     -10.162184      -276.5271
   3   2.0000     -10.075764      -274.1755
   4   2.0000     -10.035190      -273.0714
   5   2.0000     -10.026119      -272.8246
   6   2.0000     -10.019124      -272.6342
   7   2.0000     -10.008684      -272.3501
   8   2.0000      -1.079722       -29.3807
   9   2.0000      -0.989129       -26.9156
  10   2.0000      -0.771354       -20.9896
  11   2.0000      -0.723651       -19.6915
  12   2.0000      -0.680137       -18.5075
  13   2.0000      -0.608787       -16.5659
  14   2.0000      -0.545586       -14.8462
  15   2.0000      -0.530209       -14.4277
  16   2.0000      -0.467523       -12.7220
  17   2.0000      -0.459248       -12.4968
  18   2.0000      -0.451379       -12.2827
  19   2.0000      -0.433852       -11.8057
  20   2.0000      -0.399048       -10.8586
  21   2.0000      -0.389200       -10.5907
  22   2.0000      -0.378635       -10.3032
  23   2.0000      -0.363581        -9.8936
  24   2.0000      -0.343072        -9.3355
  25   2.0000      -0.325695        -8.8626
  26   2.0000      -0.317689        -8.6448
  27   2.0000      -0.301525        -8.2049
  28   2.0000      -0.295205        -8.0329
  29   2.0000      -0.290288        -7.8991
  30   2.0000      -0.280417        -7.6305
  31   2.0000      -0.252122        -6.8606
  32   0.0000      -0.022663        -0.6167
  33   0.0000       0.071879         1.9559
  34   0.0000       0.106380         2.8947
  35   0.0000       0.109121         2.9693
  36   0.0000       0.130641         3.5549

MULLIKEN ATOMIC CHARGES
-----------------------
   0 C :   -0.510093
   1 C :   -0.248526
   2 C :   -0.276161
   3 C :   -0.354496
   4 C :    0.450701
   5 O :   -0.519416
   6 O :   -0.208046
   7 C :   -0.324069
   8 H :    0.154112
   9 H :    0.158435
  10 H :    0.155000
  11 H :    0.148821
  12 H :    0.151244
  13 H :    0.157103
  14 H :    0.160707
  15 H :    0.191999
  16 H :    0.177639
  17 H :    0.179539
  18 H :    0.176883
  19 H :    0.178623
Sum of atomic charges:   -0.0000000

LOEWDIN ATOMIC CHARGES
----------------------
   0 C :   -0.431181
   1 C :   -0.313042
   2 C :   -0.282956
   3 C :   -0.225035
   4 C :    0.365450
   5 O :   -0.495861
   6 O :   -0.604964
   7 C :   -0.041954
   8 H :    0.152907
   9 H :    0.153475
  10 H :    0.152941
  11 H :    0.155526
  12 H :    0.155422
  13 H :    0.163166
  14 H :    0.164879
  15 H :    0.189537
  16 H :    0.184685
  17 H :    0.182408
  18 H :    0.187582
  19 H :    0.187015

  Mayer bond orders larger than 0.100000
B(  0-C ,  1-C ) :   0.8898 B(  0-C ,  8-H ) :   0.9812 B(  0-C ,  9-H ) :   0.9722
B(  0-C , 10-H ) :   0.9805 B(  1-C ,  2-C ) :   0.9176 B(  1-C , 11-H ) :   0.9681
B(  1-C , 12-H ) :   0.9792 B(  2-C ,  3-C ) :   0.9057 B(  2-C , 13-H ) :   0.9582
B(  2-C , 14-H ) :   0.9710 B(  3-C ,  4-C ) :   0.9707 B(  3-C , 15-H ) :   0.9574
B(  3-C , 16-H ) :   0.9730 B(  4-C ,  5-O ) :   1.7504 B(  4-C ,  6-O ) :   1.0795
B(  6-O ,  7-C ) :   0.8297 B(  7-C , 17-H ) :   0.9520 B(  7-C , 18-H ) :   0.9601
B(  7-C , 19-H ) :   0.9611

Dispersion correction           -0.004876615
FINAL SINGLE POINT ENERGY      -386.234816288337

DIPOLE MOMENT
-------------

Method             : SCF
Type of density    : Electron Density
Multiplicity       :   1
Irrep              :   0
Energy             :  -386.2418967165098138 Eh
Relativity type    :
Basis              : AO
                                X                 Y                 Z
Electronic contribution:      9.384677116       0.051029996      -1.731295952
Nuclear contribution   :     -9.333048765      -0.826739004       2.517649498
                        -----------------------------------------
Total Dipole Moment    :      0.051628351      -0.775709007       0.786353546
                        -----------------------------------------
Magnitude (a.u.)       :      1.105776582
Magnitude (Debye)      :      2.810660705

Rotational constants in cm-1:             0.199511             0.025542             0.024618
Rotational constants in MHz :          5981.179630           765.740141           738.034064

                             ****ORCA TERMINATED NORMALLY****
TOTAL RUN TIME: 0 days 0 hours 0 minutes 32 seconds 735 msec
