                         Program Version 6.0.0  -   RELEASE  -
|  1> ! r2scan-3c def2/J RI DEFGRID2 scfconv6 printgap
|  2> %output
|  3>     printlevel normal
|  4> end
|  5> * xyz 0 1
|  6> C -4.7339416139 -0.8644266358 0.1786938321
|  7> C -4.0947378683 -2.094097702 0.1013361473
|  8> C -2.7172728441 -2.1530601479 0.0003088035
|  9> C -1.954133376 -0.9874869639 -0.0252248827
| 10> C -2.6002749232 0.2513063224 0.053178031
| 11> C -3.9895481884 0.2996584571 0.1547568292
| 12> C -1.8318050194 1.5024765966 0.030561551
| 13> O -2.3874357261 2.5979727719 0.0958149875
| 14> C -0.3681753728 1.381740922 -0.0737481155
| 15> C 0.3595544234 2.5592040387 -0.0804483287
| 16> C 1.7495935477 2.5294151033 -0.1625974474
| 17> C 2.4094349154 1.3334480161 -0.2515007892
| 18> C 1.7057233937 0.104003775 -0.2677832143
| 19> C 0.2807965473 0.126841024 -0.1629486997
| 20> C -0.4861781283 -1.0987222758 -0.1363804817
| 21> O 0.027079077 -2.2306932609 -0.1988119637
| 22> N 2.3618390533 -1.057622569 -0.3899048411
| 23> C 3.7889403208 -1.216162166 -0.5070359013
| 24> C 4.5583985846 -0.8856894302 0.7993343235
| 25> O 5.3880019704 0.2476050707 0.6744523706
| 26> H -5.8085516609 -0.8154654668 0.2573706401
| 27> H -4.6712472491 -3.0056546919 0.1196740937
| 28> H -2.2011716008 -3.0997185461 -0.061112981
| 29> H -4.4596892021 1.2701910487 0.2136189147
| 30> H -0.1774042404 3.4928698718 -0.0112519345
| 31> H 2.3055884591 3.4536606535 -0.1505745699
| 32> H 3.4859467406 1.32440941 -0.2841474657
| 33> H 1.782210281 -1.8913860848 -0.3289516055
| 34> H 4.1652224923 -0.5667315596 -1.3039115181
| 35> H 3.9690615279 -2.2512231512 -0.7927102573
| 36> H 5.1447466365 -1.7507875456 1.1230985105
| 37> H 3.842940046 -0.6427029309 1.5884026825
| 38> H 6.1639565383 0.0237211709 0.1426110758
| 39> *
| 40>
| 41>                          ****END OF INPUT****

CARTESIAN COORDINATES (ANGSTROEM)
---------------------------------
  C     -4.733942   -0.864427    0.178694
  C     -4.094738   -2.094098    0.101336
  C     -2.717273   -2.153060    0.000309
  C     -1.954133   -0.987487   -0.025225
  C     -2.600275    0.251306    0.053178
  C     -3.989548    0.299658    0.154757
  C     -1.831805    1.502477    0.030562
  O     -2.387436    2.597973    0.095815
  C     -0.368175    1.381741   -0.073748
  C      0.359554    2.559204   -0.080448
  C      1.749594    2.529415   -0.162597
  C      2.409435    1.333448   -0.251501
  C      1.705723    0.104004   -0.267783
  C      0.280797    0.126841   -0.162949
  C     -0.486178   -1.098722   -0.136380
  O      0.027079   -2.230693   -0.198812
  N      2.361839   -1.057623   -0.389905
  C      3.788940   -1.216162   -0.507036
  C      4.558399   -0.885689    0.799334
  O      5.388002    0.247605    0.674452
  H     -5.808552   -0.815465    0.257371
  H     -4.671247   -3.005655    0.119674
  H     -2.201172   -3.099719   -0.061113
  H     -4.459689    1.270191    0.213619
  H     -0.177404    3.492870   -0.011252
  H      2.305588    3.453661   -0.150575
  H      3.485947    1.324409   -0.284147
  H      1.782210   -1.891386   -0.328952
  H      4.165222   -0.566732   -1.303912
  H      3.969062   -2.251223   -0.792710
  H      5.144747   -1.750788    1.123099
  H      3.842940   -0.642703    1.588403
  H      6.163957    0.023721    0.142611

 Total Charge           Charge          ....    0
 Multiplicity           Mult            ....    1
 Number of Electrons    NEL             ....  140
 Basis Dimension        Dim             ....  465

ORBITAL ENERGIES
----------------

  NO   OCC          E(Eh)            E(eV)
   0   2.0000     -18.969519      -516.1869
   1   2.0000     -18.939901      -515.3809
   2   2.0000     -18.934783      -515.2416
   3   2.0000     -14.187159      -386.0522
   4   2.0000     -10.121989      -275.4333
   5   2.0000     -10.119018      -275.3525
   6   2.0000     -10.099502      -274.8214
   7   2.0000     -10.094591      -274.6878
   8   2.0000     -10.083736      -274.3924
   9   2.0000     -10.057014      -273.6653
  10   2.0000     -10.055482      -273.6236
  11   2.0000     -10.054713      -273.6027
  12   2.0000     -10.054180      -273.5882
  13   2.0000     -10.051973      -273.5281
  14   2.0000     -10.050992      -273.5014
  15   2.0000     -10.050696      -273.4933
  16   2.0000     -10.048191      -273.4252
  17   2.0000     -10.047587      -273.4087
  18   2.0000     -10.043851      -273.3071
  19   2.0000     -10.037776      -273.1418
  20   2.0000      -1.007188       -27.4070
  21   2.0000      -1.003905       -27.3176
  22   2.0000      -0.998801       -27.1787
  23   2.0000      -0.927386       -25.2355
  24   2.0000      -0.848424       -23.0868
  25   2.0000      -0.830916       -22.6104
  26   2.0000      -0.771316       -20.9886
  27   2.0000      -0.746258       -20.3067
  28   2.0000      -0.735058       -20.0019
  29   2.0000      -0.728732       -19.8298
  30   2.0000      -0.697825       -18.9888
  31   2.0000      -0.649038       -17.6612
  32   2.0000      -0.632742       -17.2178
  33   2.0000      -0.613785       -16.7019
  34   2.0000      -0.605655       -16.4807
  35   2.0000      -0.567781       -15.4501
  36   2.0000      -0.550375       -14.9765
  37   2.0000      -0.522957       -14.2304
  38   2.0000      -0.515176       -14.0186
  39   2.0000      -0.501029       -13.6337
  40   2.0000      -0.484090       -13.1728
  41   2.0000      -0.466060       -12.6821
  42   2.0000      -0.457544       -12.4504
  43   2.0000      -0.446044       -12.1375
  44   2.0000      -0.437832       -11.9140
  45   2.0000      -0.433610       -11.7991
  46   2.0000      -0.424967       -11.5639
  47   2.0000      -0.412873       -11.2348
  48   2.0000      -0.405368       -11.0306
  49   2.0000      -0.402940       -10.9646
  50   2.0000      -0.397389       -10.8135
  51   2.0000      -0.393216       -10.7000
  52   2.0000      -0.385982       -10.5031
  53   2.0000      -0.378080       -10.2881
  54   2.0000      -0.369889       -10.0652
  55   2.0000      -0.360872        -9.8198
  56   2.0000      -0.351053        -9.5526
  57   2.0000      -0.342817        -9.3285
  58   2.0000      -0.333356        -9.0711
  59   2.0000      -0.327945        -8.9238
  60   2.0000      -0.320380        -8.7180
  61   2.0000      -0.311326        -8.4716
  62   2.0000      -0.297598        -8.0981
  63   2.0000      -0.260703        -7.0941
  64   2.0000      -0.258173        -7.0252
  65   2.0000      -0.248772        -6.7694
  66   2.0000      -0.248147        -6.7524
  67   2.0000      -0.231763        -6.3066
  68   2.0000      -0.219538        -5.9739
  69   2.0000      -0.194439        -5.2910
  70   0.0000      -0.126800        -3.4504
  71   0.0000      -0.076745        -2.0883
  72   0.0000      -0.047266        -1.2862
  73   0.0000      -0.026049        -0.7088
  74   0.0000       0.024550         0.6681

MULLIKEN ATOMIC CHARGES
-----------------------
   0 C :   -0.132320
   1 C :   -0.127894
   2 C :   -0.229940
   3 C :    0.191725
   4 C :    0.140254
   5 C :   -0.215955
   6 C :    0.031675
   7 O :   -0.354725
   8 C :    0.197984
   9 C :   -0.249195
  10 C :   -0.172581
  11 C :   -0.248859
  12 C :    0.281446
  13 C :   -0.150651
  14 C :    0.001010
  15 O :   -0.437251
  16 N :   -0.042158
  17 C :   -0.317738
  18 C :   -0.148888
  19 O :   -0.428022
  20 H :    0.148737
  21 H :    0.148400
  22 H :    0.182071
  23 H :    0.181898
  24 H :    0.184356
  25 H :    0.148148
  26 H :    0.189133
  27 H :    0.302388
  28 H :    0.166085
  29 H :    0.156341
  30 H :    0.135671
  31 H :    0.169893
  32 H :    0.298959
Sum of atomic charges:    0.0000000

LOEWDIN ATOMIC CHARGES
----------------------
   0 C :   -0.144061
   1 C :   -0.141117
   2 C :   -0.102675
   3 C :   -0.025776
   4 C :   -0.035434
   5 C :   -0.097390
   6 C :    0.269356
   7 O :   -0.480829
   8 C :   -0.025205
   9 C :   -0.122221
  10 C :   -0.125165
  11 C :   -0.131195
  12 C :    0.199063
  13 C :   -0.034463
  14 C :    0.269720
  15 O :   -0.539655
  16 N :   -0.686365
  17 C :   -0.023777
  18 C :    0.027691
  19 O :   -0.627575
  20 H :    0.170369
  21 H :    0.170210
  22 H :    0.192616
  23 H :    0.191770
  24 H :    0.193239
  25 H :    0.172395
  26 H :    0.194914
  27 H :    0.294876
  28 H :    0.189066
  29 H :    0.187122
  30 H :    0.161828
  31 H :    0.191948
  32 H :    0.266720

  Mayer bond orders larger than 0.100000
B(  0-C ,  1-C ) :   1.3219 B(  0-C ,  5-C ) :   1.3569 B(  0-C , 20-H ) :   0.9557
B(  1-C ,  2-C ) :   1.3499 B(  1-C , 21-H ) :   0.9556 B(  2-C ,  3-C ) :   1.3557
B(  2-C , 15-O ) :   0.1027 B(  2-C , 22-H ) :   0.9594 B(  3-C ,  4-C ) :   1.5222
B(  3-C , 14-C ) :   0.9159 B(  3-C , 15-O ) :  -0.2054 B(  4-C ,  5-C ) :   1.3502
B(  4-C ,  6-C ) :   0.8530 B(  4-C ,  7-O ) :  -0.2238 B(  5-C ,  7-O ) :   0.1085
B(  5-C , 23-H ) :   0.9632 B(  6-C ,  7-O ) :   2.1000 B(  6-C ,  8-C ) :   0.8654
B(  7-O ,  8-C ) :  -0.2170 B(  7-O ,  9-C ) :   0.1227 B(  8-C ,  9-C ) :   1.4027
B(  8-C , 13-C ) :   1.2839 B(  9-C , 10-C ) :   1.2239 B(  9-C , 24-H ) :   0.9677
B( 10-C , 11-C ) :   1.4036 B( 10-C , 25-H ) :   0.9686 B( 11-C , 12-C ) :   1.1379
B( 11-C , 26-H ) :   0.9246 B( 12-C , 13-C ) :   1.2190 B( 12-C , 14-C ) :  -0.1170
B( 12-C , 16-N ) :   1.2898 B( 13-C , 14-C ) :   0.9320 B( 13-C , 15-O ) :  -0.1386
B( 14-C , 15-O ) :   1.9001 B( 16-N , 17-C ) :   0.8959 B( 16-N , 27-H ) :   0.8323
B( 17-C , 18-C ) :   0.7922 B( 17-C , 28-H ) :   0.9747 B( 17-C , 29-H ) :   0.9680
B( 18-C , 19-O ) :   0.9458 B( 18-C , 30-H ) :   0.9682 B( 18-C , 31-H ) :   0.9871
B( 19-O , 32-H ) :   0.8966

Dispersion correction           -0.015757738
FINAL SINGLE POINT ENERGY      -897.781458515550

DIPOLE MOMENT
-------------

Method             : SCF
Type of density    : Electron Density
Multiplicity       :   1
Irrep              :   0
Energy             :  -897.7821893342111252 Eh
Relativity type    :
Basis              : AO
                                X                 Y                 Z
Electronic contribution:    -11.479114517       3.131107537      -0.756245341
Nuclear contribution   :     12.762161543      -4.179841740       0.486772604
                        -----------------------------------------
Total Dipole Moment    :      1.283047026      -1.048734203      -0.269472737
                        -----------------------------------------
Magnitude (a.u.)       :      1.678889114
Magnitude (Debye)      :      4.267396991

Rotational constants in cm-1:             0.024421             0.007106             0.005617
Rotational constants in MHz :           732.135768           213.043775           168.404426

                             ****ORCA TERMINATED NORMALLY****
TOTAL RUN TIME: 0 days 0 hours 1 minutes 59 seconds 816 msec
