                         Program Version 6.0.0  -   RELEASE  -
|  1> ! r2scan-3c def2/J RI DEFGRID2 scfconv6 printgap
|  2> %output
|  3>     printlevel normal
|  4> end
|  5> %cpcm
|  6>     smd true
|  7>     smdsolvent "water"
|  8> end
|  9> * xyz 0 1
| 10> C -4.7339416139 -0.8644266358 0.1786938321
| 11> C -4.0947378683 -2.094097702 0.1013361473
| 12> C -2.7172728441 -2.1530601479 0.0003088035
| 13> C -1.954133376 -0.9874869639 -0.0252248827
| 14> C -2.6002749232 0.2513063224 0.053178031
| 15> C -3.9895481884 0.2996584571 0.1547568292
| 16> C -1.8318050194 1.5024765966 0.030561551
| 17> O -2.3874357261 2.5979727719 0.0958149875
| 18> C -0.3681753728 1.381740922 -0.0737481155
| 19> C 0.3595544234 2.5592040387 -0.0804483287
| 20> C 1.7495935477 2.5294151033 -0.1625974474
| 21> C 2.4094349154 1.3334480161 -0.2515007892
| 22> C 1.7057233937 0.104003775 -0.2677832143
| 23> C 0.2807965473 0.126841024 -0.1629486997
| 24> C -0.4861781283 -1.0987222758 -0.1363804817
| 25> O 0.027079077 -2.2306932609 -0.1988119637
| 26> N 2.3618390533 -1.057622569 -0.3899048411
| 27> C 3.7889403208 -1.216162166 -0.5070359013
| 28> C 4.5583985846 -0.8856894302 0.7993343235
| 29> O 5.3880019704 0.2476050707 0.6744523706
| 30> H -5.8085516609 -0.8154654668 0.2573706401
| 31> H -4.6712472491 -3.0056546919 0.1196740937
| 32> H -2.2011716008 -3.0997185461 -0.061112981
| 33> H -4.4596892021 1.2701910487 0.2136189147
| 34> H -0.1774042404 3.4928698718 -0.0112519345
| 35> H 2.3055884591 3.4536606535 -0.1505745699
| 36> H 3.4859467406 1.32440941 -0.2841474657
| 37> H 1.782210281 -1.8913860848 -0.3289516055
| 38> H 4.1652224923 -0.5667315596 -1.3039115181
| 39> H 3.9690615279 -2.2512231512 -0.7927102573
| 40> H 5.1447466365 -1.7507875456 1.1230985105
| 41> H 3.842940046 -0.6427029309 1.5884026825
| 42> H 6.1639565383 0.0237211709 0.1426110758
| 43> *
| 44>
| 45>                          ****END OF INPUT****

CARTESIAN COORDINATES (ANGSTROEM)
---------------------------------
  C     -4.733942   -0.864427    0.178694
  C     -4.094738   -2.094098    0.101336
  C     -2.717273   -2.153060    0.000309
  C     -1.954133   -0.987487   -0.025225
  C     -2.600275    0.251306    0.053178
  C     -3.989548    0.299658    0.154757
  C     -1.831805    1.502477    0.030562
  O     -2.387436    2.597973    0.095815
  C     -0.368175    1.381741   -0.073748
  C      0.359554    2.559204   -0.080448
  C      1.749594    2.529415   -0.162597
  C      2.409435    1.333448   -0.251501
  C      1.705723    0.104004   -0.267783
  C      0.280797    0.126841   -0.162949
  C     -0.486178   -1.098722   -0.136380
  O      0.027079   -2.230693   -0.198812
  N      2.361839   -1.057623   -0.389905
  C      3.788940   -1.216162   -0.507036
  C      4.558399   -0.885689    0.799334
  O      5.388002    0.247605    0.674452
  H     -5.808552   -0.815465    0.257371
  H     -4.671247   -3.005655    0.119674
  H     -2.201172   -3.099719   -0.061113
  H     -4.459689    1.270191    0.213619
  H     -0.177404    3.492870   -0.011252
  H      2.305588    3.453661   -0.150575
  H      3.485947    1.324409   -0.284147
  H      1.782210   -1.891386   -0.328952
  H      4.165222   -0.566732   -1.303912
  H      3.969062   -2.251223   -0.792710
  H      5.144747   -1.750788    1.123099
  H      3.842940   -0.642703    1.588403
  H      6.163957    0.023721    0.142611

 Total Charge           Charge          ....    0
 Multiplicity           Mult            ....    1
 Number of Electrons    NEL             ....  140
 Basis Dimension        Dim             ....  465

ORBITAL ENERGIES
----------------

  NO   OCC          E(Eh)            E(eV)
   0   2.0000     -18.954467      -515.7773
   1   2.0000     -18.948739      -515.6214
   2   2.0000     -18.946157      -515.5511
   3   2.0000     -14.183925      -385.9642
   4   2.0000     -10.131565      -275.6939
   5   2.0000     -10.127114      -275.5728
   6   2.0000     -10.099279      -274.8153
   7   2.0000     -10.075182      -274.1597
   8   2.0000     -10.062950      -273.8268
   9   2.0000     -10.059978      -273.7459
  10   2.0000     -10.059819      -273.7416
  11   2.0000     -10.058132      -273.6957
  12   2.0000     -10.056078      -273.6398
  13   2.0000     -10.049778      -273.4684
  14   2.0000     -10.049678      -273.4656
  15   2.0000     -10.049580      -273.4630
  16   2.0000     -10.048142      -273.4239
  17   2.0000     -10.047926      -273.4180
  18   2.0000     -10.044257      -273.3181
  19   2.0000     -10.041980      -273.2562
  20   2.0000      -1.015458       -27.6320
  21   2.0000      -1.010950       -27.5093
  22   2.0000      -0.991207       -26.9721
  23   2.0000      -0.922473       -25.1018
  24   2.0000      -0.850999       -23.1569
  25   2.0000      -0.832232       -22.6462
  26   2.0000      -0.772740       -21.0273
  27   2.0000      -0.740369       -20.1465
  28   2.0000      -0.736442       -20.0396
  29   2.0000      -0.729724       -19.8568
  30   2.0000      -0.689720       -18.7682
  31   2.0000      -0.651857       -17.7379
  32   2.0000      -0.628370       -17.0988
  33   2.0000      -0.609551       -16.5867
  34   2.0000      -0.600612       -16.3435
  35   2.0000      -0.565836       -15.3972
  36   2.0000      -0.550956       -14.9923
  37   2.0000      -0.521295       -14.1852
  38   2.0000      -0.513692       -13.9783
  39   2.0000      -0.492630       -13.4051
  40   2.0000      -0.474479       -12.9112
  41   2.0000      -0.463226       -12.6050
  42   2.0000      -0.458287       -12.4706
  43   2.0000      -0.443487       -12.0679
  44   2.0000      -0.435118       -11.8402
  45   2.0000      -0.429371       -11.6838
  46   2.0000      -0.423245       -11.5171
  47   2.0000      -0.416887       -11.3441
  48   2.0000      -0.409807       -11.1514
  49   2.0000      -0.405968       -11.0470
  50   2.0000      -0.398363       -10.8400
  51   2.0000      -0.390043       -10.6136
  52   2.0000      -0.382761       -10.4154
  53   2.0000      -0.381771       -10.3885
  54   2.0000      -0.369222       -10.0470
  55   2.0000      -0.356399        -9.6981
  56   2.0000      -0.346457        -9.4276
  57   2.0000      -0.343024        -9.3342
  58   2.0000      -0.336728        -9.1628
  59   2.0000      -0.328377        -8.9356
  60   2.0000      -0.321871        -8.7586
  61   2.0000      -0.297084        -8.0841
  62   2.0000      -0.295514        -8.0413
  63   2.0000      -0.264413        -7.1950
  64   2.0000      -0.252161        -6.8617
  65   2.0000      -0.250659        -6.8208
  66   2.0000      -0.250508        -6.8167
  67   2.0000      -0.243562        -6.6277
  68   2.0000      -0.230450        -6.2709
  69   2.0000      -0.193772        -5.2728
  70   0.0000      -0.133725        -3.6388
  71   0.0000      -0.080101        -2.1797
  72   0.0000      -0.048660        -1.3241
  73   0.0000      -0.027791        -0.7562
  74   0.0000       0.024332         0.6621

MULLIKEN ATOMIC CHARGES
-----------------------
   0 C :   -0.170001
   1 C :   -0.158512
   2 C :   -0.243867
   3 C :    0.199448
   4 C :    0.140135
   5 C :   -0.227824
   6 C :    0.075125
   7 O :   -0.440686
   8 C :    0.192660
   9 C :   -0.261090
  10 C :   -0.205311
  11 C :   -0.263852
  12 C :    0.301954
  13 C :   -0.155226
  14 C :    0.019074
  15 O :   -0.499455
  16 N :   -0.064755
  17 C :   -0.318544
  18 C :   -0.152178
  19 O :   -0.498624
  20 H :    0.185232
  21 H :    0.185574
  22 H :    0.197076
  23 H :    0.195862
  24 H :    0.196349
  25 H :    0.183469
  26 H :    0.202544
  27 H :    0.334312
  28 H :    0.187128
  29 H :    0.184403
  30 H :    0.155800
  31 H :    0.173411
  32 H :    0.350368
Sum of atomic charges:    0.0000000

LOEWDIN ATOMIC CHARGES
----------------------
   0 C :   -0.139503
   1 C :   -0.132394
   2 C :   -0.108690
   3 C :   -0.027601
   4 C :   -0.042198
   5 C :   -0.102074
   6 C :    0.276641
   7 O :   -0.549193
   8 C :   -0.032185
   9 C :   -0.126454
  10 C :   -0.123964
  11 C :   -0.120338
  12 C :    0.199777
  13 C :   -0.038932
  14 C :    0.270088
  15 O :   -0.582927
  16 N :   -0.671445
  17 C :   -0.014069
  18 C :    0.032214
  19 O :   -0.654757
  20 H :    0.184234
  21 H :    0.184489
  22 H :    0.196552
  23 H :    0.195001
  24 H :    0.195541
  25 H :    0.185951
  26 H :    0.200852
  27 H :    0.297508
  28 H :    0.198624
  29 H :    0.199849
  30 H :    0.172903
  31 H :    0.190959
  32 H :    0.285542

  Mayer bond orders larger than 0.100000
B(  0-C ,  1-C ) :   1.3094 B(  0-C ,  5-C ) :   1.3535 B(  0-C , 20-H ) :   0.9604
B(  1-C ,  2-C ) :   1.3395 B(  1-C , 21-H ) :   0.9602 B(  2-C ,  3-C ) :   1.2993
B(  2-C , 22-H ) :   0.9722 B(  3-C ,  4-C ) :   1.5091 B(  3-C , 14-C ) :   0.9099
B(  3-C , 15-O ) :  -0.2031 B(  4-C ,  5-C ) :   1.2879 B(  4-C ,  6-C ) :   0.8635
B(  4-C ,  7-O ) :  -0.2234 B(  5-C ,  7-O ) :   0.1042 B(  5-C , 23-H ) :   0.9738
B(  6-C ,  7-O ) :   2.0614 B(  6-C ,  8-C ) :   0.8748 B(  7-O ,  8-C ) :  -0.2166
B(  7-O ,  9-C ) :   0.1210 B(  8-C ,  9-C ) :   1.3346 B(  8-C , 13-C ) :   1.2696
B(  9-C , 10-C ) :   1.2160 B(  9-C , 24-H ) :   0.9835 B( 10-C , 11-C ) :   1.3952
B( 10-C , 25-H ) :   0.9759 B( 11-C , 12-C ) :   1.1042 B( 11-C , 26-H ) :   0.9376
B( 12-C , 13-C ) :   1.1882 B( 12-C , 14-C ) :  -0.1120 B( 12-C , 16-N ) :   1.3152
B( 13-C , 14-C ) :   0.9533 B( 13-C , 15-O ) :  -0.1416 B( 14-C , 15-O ) :   1.8779
B( 16-N , 17-C ) :   0.8879 B( 16-N , 27-H ) :   0.8277 B( 17-C , 18-C ) :   0.7919
B( 17-C , 28-H ) :   0.9691 B( 17-C , 29-H ) :   0.9562 B( 18-C , 19-O ) :   0.9429
B( 18-C , 30-H ) :   0.9545 B( 18-C , 31-H ) :   0.9890 B( 19-O , 32-H ) :   0.8695

Dispersion correction           -0.015757738
FINAL SINGLE POINT ENERGY      -897.800995851687

DIPOLE MOMENT
-------------

Method             : SCF
Type of density    : Electron Density
Multiplicity       :   1
Irrep              :   0
Energy             :  -897.8017266703473069 Eh
Relativity type    :
Basis              : AO
                                X                 Y                 Z
Electronic contribution:    -10.866683260       2.614782765      -0.925371975
Nuclear contribution   :     12.762161543      -4.179841740       0.486772604
                        -----------------------------------------
Total Dipole Moment    :      1.895478283      -1.565058975      -0.438599371
                        -----------------------------------------
Magnitude (a.u.)       :      2.496921489
Magnitude (Debye)      :      6.346670048

Rotational constants in cm-1:             0.024421             0.007106             0.005617
Rotational constants in MHz :           732.135768           213.043775           168.404426

                             ****ORCA TERMINATED NORMALLY****
TOTAL RUN TIME: 0 days 0 hours 2 minutes 35 seconds 332 msec
