                         Program Version 6.0.0  -   RELEASE  -
|  1> ! r2scan-3c def2/J RI DEFGRID2 scfconv6 printgap
|  2> %output
|  3>     printlevel normal
|  4> end
|  5> * xyz 0 1
|  6> C -2.0213274596 -1.5645457373 0.0311226728
|  7> C -2.3882948804 -0.0920992824 0.169398534
|  8> C -1.4148444891 0.8105718038 -0.5992451076
|  9> C -0.0416343414 0.7442415891 0.017550134
| 10> O 0.2270477489 1.1038451609 1.1451831214
| 11> O 0.8509999606 0.2421991026 -0.826382581
| 12> C 2.2082739352 0.089322283 -0.3789518904
| 13> C 2.3951461333 -1.2161793281 0.3791924417
| 14> H -2.7452131893 -2.1851645828 0.5524774708
| 15> H -2.0038647729 -1.8566485966 -1.0160624437
| 16> H -1.0382188738 -1.7548699861 0.4569127363
| 17> H -2.3733182172 0.1952154069 1.2226314292
| 18> H -3.3946943179 0.0724630829 -0.2164778283
| 19> H -1.7571755279 1.8443401436 -0.5382445409
| 20> H -1.3459587083 0.5047248752 -1.6422244748
| 21> H 2.8013707966 0.1059082735 -1.293642776
| 22> H 2.4639293324 0.9424943438 0.2568910255
| 23> H 3.4415488023 -1.3337861242 0.6409523558
| 24> H 1.803504943 -1.2043483219 1.2922336584
| 25> H 2.0823552279 -2.0553220174 -0.2365583434
| 26> *
| 27>
| 28>                          ****END OF INPUT****

CARTESIAN COORDINATES (ANGSTROEM)
---------------------------------
  C     -2.021327   -1.564546    0.031123
  C     -2.388295   -0.092099    0.169399
  C     -1.414844    0.810572   -0.599245
  C     -0.041634    0.744242    0.017550
  O      0.227048    1.103845    1.145183
  O      0.851000    0.242199   -0.826383
  C      2.208274    0.089322   -0.378952
  C      2.395146   -1.216179    0.379192
  H     -2.745213   -2.185165    0.552477
  H     -2.003865   -1.856649   -1.016062
  H     -1.038219   -1.754870    0.456913
  H     -2.373318    0.195215    1.222631
  H     -3.394694    0.072463   -0.216478
  H     -1.757176    1.844340   -0.538245
  H     -1.345959    0.504725   -1.642224
  H      2.801371    0.105908   -1.293643
  H      2.463929    0.942494    0.256891
  H      3.441549   -1.333786    0.640952
  H      1.803505   -1.204348    1.292234
  H      2.082355   -2.055322   -0.236558

 Total Charge           Charge          ....    0
 Multiplicity           Mult            ....    1
 Number of Electrons    NEL             ....   64
 Basis Dimension        Dim             ....  222

ORBITAL ENERGIES
----------------

  NO   OCC          E(Eh)            E(eV)
   0   2.0000     -18.996810      -516.9295
   1   2.0000     -18.927103      -515.0326
   2   2.0000     -10.150956      -276.2216
   3   2.0000     -10.091023      -274.5907
   4   2.0000     -10.039907      -273.1998
   5   2.0000     -10.035520      -273.0804
   6   2.0000     -10.028821      -272.8981
   7   2.0000     -10.020499      -272.6717
   8   2.0000      -1.071157       -29.1477
   9   2.0000      -0.974905       -26.5285
  10   2.0000      -0.773543       -21.0492
  11   2.0000      -0.739387       -20.1197
  12   2.0000      -0.677445       -18.4342
  13   2.0000      -0.625952       -17.0330
  14   2.0000      -0.566606       -15.4181
  15   2.0000      -0.518443       -14.1076
  16   2.0000      -0.473941       -12.8966
  17   2.0000      -0.454047       -12.3552
  18   2.0000      -0.445279       -12.1167
  19   2.0000      -0.418747       -11.3947
  20   2.0000      -0.406813       -11.0699
  21   2.0000      -0.391150       -10.6437
  22   2.0000      -0.377605       -10.2752
  23   2.0000      -0.367257        -9.9936
  24   2.0000      -0.351652        -9.5689
  25   2.0000      -0.344683        -9.3793
  26   2.0000      -0.318216        -8.6591
  27   2.0000      -0.310919        -8.4605
  28   2.0000      -0.309567        -8.4238
  29   2.0000      -0.302904        -8.2424
  30   2.0000      -0.271050        -7.3756
  31   2.0000      -0.235065        -6.3965
  32   0.0000      -0.015535        -0.4227
  33   0.0000       0.074751         2.0341
  34   0.0000       0.087696         2.3863
  35   0.0000       0.110847         3.0163
  36   0.0000       0.117173         3.1884

MULLIKEN ATOMIC CHARGES
-----------------------
   0 C :   -0.491626
   1 C :   -0.223976
   2 C :   -0.304694
   3 C :    0.350967
   4 O :   -0.425708
   5 O :   -0.170969
   6 C :   -0.133198
   7 C :   -0.478742
   8 H :    0.148464
   9 H :    0.148449
  10 H :    0.154508
  11 H :    0.161085
  12 H :    0.145777
  13 H :    0.164745
  14 H :    0.163360
  15 H :    0.148122
  16 H :    0.166970
  17 H :    0.147529
  18 H :    0.175966
  19 H :    0.152973
Sum of atomic charges:    0.0000000

LOEWDIN ATOMIC CHARGES
----------------------
   0 C :   -0.416831
   1 C :   -0.291160
   2 C :   -0.231511
   3 C :    0.353898
   4 O :   -0.436264
   5 O :   -0.595549
   6 C :    0.027085
   7 C :   -0.392928
   8 H :    0.152526
   9 H :    0.151726
  10 H :    0.155094
  11 H :    0.165913
  12 H :    0.153045
  13 H :    0.180855
  14 H :    0.176437
  15 H :    0.177905
  16 H :    0.187643
  17 H :    0.159195
  18 H :    0.165765
  19 H :    0.157159

  Mayer bond orders larger than 0.100000
B(  0-C ,  1-C ) :   0.9044 B(  0-C ,  8-H ) :   0.9690 B(  0-C ,  9-H ) :   0.9809
B(  0-C , 10-H ) :   0.9716 B(  1-C ,  2-C ) :   0.8842 B(  1-C , 11-H ) :   0.9717
B(  1-C , 12-H ) :   0.9654 B(  2-C ,  3-C ) :   0.9370 B(  2-C , 13-H ) :   0.9437
B(  2-C , 14-H ) :   1.0050 B(  3-C ,  4-O ) :   1.8327 B(  3-C ,  5-O ) :   1.0496
B(  5-O ,  6-C ) :   0.8279 B(  6-C ,  7-C ) :   0.9284 B(  6-C , 15-H ) :   0.9616
B(  6-C , 16-H ) :   0.9694 B(  7-C , 17-H ) :   0.9643 B(  7-C , 18-H ) :   0.9723
B(  7-C , 19-H ) :   0.9725

Dispersion correction           -0.005301568
FINAL SINGLE POINT ENERGY      -386.236638248140

DIPOLE MOMENT
-------------

Method             : SCF
Type of density    : Electron Density
Multiplicity       :   1
Irrep              :   0
Energy             :  -386.2430614174213588 Eh
Relativity type    :
Basis              : AO
                                X                 Y                 Z
Electronic contribution:      2.014941805       5.881548192      -0.131771906
Nuclear contribution   :     -1.922017850      -6.289205586      -0.484162445
                        -----------------------------------------
Total Dipole Moment    :      0.092923955      -0.407657394      -0.615934351
                        -----------------------------------------
Magnitude (a.u.)       :      0.744442434
Magnitude (Debye)      :      1.892222289

Rotational constants in cm-1:             0.108100             0.042127             0.036967
Rotational constants in MHz :          3240.768906          1262.943955          1108.241059

                             ****ORCA TERMINATED NORMALLY****
TOTAL RUN TIME: 0 days 0 hours 0 minutes 33 seconds 158 msec
