                         Program Version 6.0.0  -   RELEASE  -
|  1> ! r2scan-3c def2/J RI DEFGRID2 scfconv6 printgap
|  2> %output
|  3>     printlevel normal
|  4> end
|  5> %cpcm
|  6>     smd true
|  7>     smdsolvent "water"
|  8> end
|  9> * xyz 0 1
| 10> C -2.0213274596 -1.5645457373 0.0311226728
| 11> C -2.3882948804 -0.0920992824 0.169398534
| 12> C -1.4148444891 0.8105718038 -0.5992451076
| 13> C -0.0416343414 0.7442415891 0.017550134
| 14> O 0.2270477489 1.1038451609 1.1451831214
| 15> O 0.8509999606 0.2421991026 -0.826382581
| 16> C 2.2082739352 0.089322283 -0.3789518904
| 17> C 2.3951461333 -1.2161793281 0.3791924417
| 18> H -2.7452131893 -2.1851645828 0.5524774708
| 19> H -2.0038647729 -1.8566485966 -1.0160624437
| 20> H -1.0382188738 -1.7548699861 0.4569127363
| 21> H -2.3733182172 0.1952154069 1.2226314292
| 22> H -3.3946943179 0.0724630829 -0.2164778283
| 23> H -1.7571755279 1.8443401436 -0.5382445409
| 24> H -1.3459587083 0.5047248752 -1.6422244748
| 25> H 2.8013707966 0.1059082735 -1.293642776
| 26> H 2.4639293324 0.9424943438 0.2568910255
| 27> H 3.4415488023 -1.3337861242 0.6409523558
| 28> H 1.803504943 -1.2043483219 1.2922336584
| 29> H 2.0823552279 -2.0553220174 -0.2365583434
| 30> *
| 31>
| 32>                          ****END OF INPUT****

CARTESIAN COORDINATES (ANGSTROEM)
---------------------------------
  C     -2.021327   -1.564546    0.031123
  C     -2.388295   -0.092099    0.169399
  C     -1.414844    0.810572   -0.599245
  C     -0.041634    0.744242    0.017550
  O      0.227048    1.103845    1.145183
  O      0.851000    0.242199   -0.826383
  C      2.208274    0.089322   -0.378952
  C      2.395146   -1.216179    0.379192
  H     -2.745213   -2.185165    0.552477
  H     -2.003865   -1.856649   -1.016062
  H     -1.038219   -1.754870    0.456913
  H     -2.373318    0.195215    1.222631
  H     -3.394694    0.072463   -0.216478
  H     -1.757176    1.844340   -0.538245
  H     -1.345959    0.504725   -1.642224
  H      2.801371    0.105908   -1.293643
  H      2.463929    0.942494    0.256891
  H      3.441549   -1.333786    0.640952
  H      1.803505   -1.204348    1.292234
  H      2.082355   -2.055322   -0.236558

 Total Charge           Charge          ....    0
 Multiplicity           Mult            ....    1
 Number of Electrons    NEL             ....   64
 Basis Dimension        Dim             ....  222

ORBITAL ENERGIES
----------------

  NO   OCC          E(Eh)            E(eV)
   0   2.0000     -19.002988      -517.0976
   1   2.0000     -18.943113      -515.4683
   2   2.0000     -10.161900      -276.5194
   3   2.0000     -10.083236      -274.3788
   4   2.0000     -10.034778      -273.0602
   5   2.0000     -10.028991      -272.9027
   6   2.0000     -10.018312      -272.6121
   7   2.0000     -10.011696      -272.4321
   8   2.0000      -1.078876       -29.3577
   9   2.0000      -0.988811       -26.9069
  10   2.0000      -0.769384       -20.9360
  11   2.0000      -0.732730       -19.9386
  12   2.0000      -0.671784       -18.2802
  13   2.0000      -0.620835       -16.8938
  14   2.0000      -0.560233       -15.2447
  15   2.0000      -0.517138       -14.0720
  16   2.0000      -0.474653       -12.9160
  17   2.0000      -0.457335       -12.4447
  18   2.0000      -0.448271       -12.1981
  19   2.0000      -0.420949       -11.4546
  20   2.0000      -0.401882       -10.9358
  21   2.0000      -0.386121       -10.5069
  22   2.0000      -0.371109       -10.0984
  23   2.0000      -0.363723        -9.8974
  24   2.0000      -0.348624        -9.4865
  25   2.0000      -0.341703        -9.2982
  26   2.0000      -0.311245        -8.4694
  27   2.0000      -0.305052        -8.3009
  28   2.0000      -0.303946        -8.2708
  29   2.0000      -0.300552        -8.1784
  30   2.0000      -0.278962        -7.5909
  31   2.0000      -0.251169        -6.8347
  32   0.0000      -0.023799        -0.6476
  33   0.0000       0.077251         2.1021
  34   0.0000       0.094798         2.5796
  35   0.0000       0.120779         3.2866
  36   0.0000       0.124951         3.4001

MULLIKEN ATOMIC CHARGES
-----------------------
   0 C :   -0.531699
   1 C :   -0.226262
   2 C :   -0.323211
   3 C :    0.390106
   4 O :   -0.508180
   5 O :   -0.192264
   6 C :   -0.143130
   7 C :   -0.498287
   8 H :    0.161522
   9 H :    0.164108
  10 H :    0.163439
  11 H :    0.156483
  12 H :    0.164680
  13 H :    0.190215
  14 H :    0.179016
  15 H :    0.174220
  16 H :    0.171802
  17 H :    0.170693
  18 H :    0.170534
  19 H :    0.166215
Sum of atomic charges:   -0.0000000

LOEWDIN ATOMIC CHARGES
----------------------
   0 C :   -0.424089
   1 C :   -0.290022
   2 C :   -0.228997
   3 C :    0.363100
   4 O :   -0.495116
   5 O :   -0.598521
   6 C :    0.031590
   7 C :   -0.395037
   8 H :    0.156271
   9 H :    0.156354
  10 H :    0.156438
  11 H :    0.162848
  12 H :    0.160484
  13 H :    0.189675
  14 H :    0.183979
  15 H :    0.189258
  16 H :    0.189186
  17 H :    0.167644
  18 H :    0.162887
  19 H :    0.162069

  Mayer bond orders larger than 0.100000
B(  0-C ,  1-C ) :   0.8935 B(  0-C ,  8-H ) :   0.9655 B(  0-C ,  9-H ) :   0.9780
B(  0-C , 10-H ) :   0.9692 B(  1-C ,  2-C ) :   0.8721 B(  1-C , 11-H ) :   0.9746
B(  1-C , 12-H ) :   0.9614 B(  2-C ,  3-C ) :   0.9393 B(  2-C , 13-H ) :   0.9374
B(  2-C , 14-H ) :   0.9948 B(  3-C ,  4-O ) :   1.7640 B(  3-C ,  5-O ) :   1.0725
B(  5-O ,  6-C ) :   0.8094 B(  6-C ,  7-C ) :   0.9293 B(  6-C , 15-H ) :   0.9521
B(  6-C , 16-H ) :   0.9657 B(  7-C , 17-H ) :   0.9595 B(  7-C , 18-H ) :   0.9696
B(  7-C , 19-H ) :   0.9685

Dispersion correction           -0.005301568
FINAL SINGLE POINT ENERGY      -386.241798591253

DIPOLE MOMENT
-------------

Method             : SCF
Type of density    : Electron Density
Multiplicity       :   1
Irrep              :   0
Energy             :  -386.2482217605341930 Eh
Relativity type    :
Basis              : AO
                                X                 Y                 Z
Electronic contribution:      2.028980864       5.744000776      -0.458859416
Nuclear contribution   :     -1.922017850      -6.289205586      -0.484162445
                        -----------------------------------------
Total Dipole Moment    :      0.106963015      -0.545204809      -0.943021861
                        -----------------------------------------
Magnitude (a.u.)       :      1.094522545
Magnitude (Debye)      :      2.782055215

Rotational constants in cm-1:             0.108100             0.042127             0.036967
Rotational constants in MHz :          3240.768906          1262.943955          1108.241059

                             ****ORCA TERMINATED NORMALLY****
TOTAL RUN TIME: 0 days 0 hours 0 minutes 38 seconds 978 msec
