                         Program Version 6.0.0  -   RELEASE  -
|  1> ! pbe def2-sv(p) def2/J RI DEFGRID1 loosescf d4 GCP(DFT/SV(P)) printgap
|  2> %output
|  3>     printlevel normal
|  4> end
|  5> * xyz 0 1
|  6> C -3.8673897145 -0.6955924733 -0.1505559482
|  7> C -2.5082941913 -0.304009587 0.4156321861
|  8> C -1.9009331004 0.8711925939 -0.3456619563
|  9> C -0.577116152 1.3352180206 0.2218297803
| 10> I 1.0150565822 -0.1340085584 -0.0154809665
| 11> H -4.5648321978 0.1360372916 -0.0810189346
| 12> H -3.7767698232 -0.9818071836 -1.1958306812
| 13> H -4.2789061269 -1.5367169576 0.4008411891
| 14> H -1.8344234057 -1.1620792488 0.3575530565
| 15> H -2.6155162392 -0.0360484943 1.4695712283
| 16> H -1.7855312846 0.6049196271 -1.3987119183
| 17> H -2.5855257948 1.7229868972 -0.292794132
| 18> H -0.6416473888 1.5188798022 1.291045465
| 19> H -0.2151513057 2.2256677024 -0.2846091247
| 20> *
| 21>
| 22>                          ****END OF INPUT****

CARTESIAN COORDINATES (ANGSTROEM)
---------------------------------
  C     -3.867390   -0.695592   -0.150556
  C     -2.508294   -0.304010    0.415632
  C     -1.900933    0.871193   -0.345662
  C     -0.577116    1.335218    0.221830
  I      1.015057   -0.134009   -0.015481
  H     -4.564832    0.136037   -0.081019
  H     -3.776770   -0.981807   -1.195831
  H     -4.278906   -1.536717    0.400841
  H     -1.834423   -1.162079    0.357553
  H     -2.615516   -0.036048    1.469571
  H     -1.785531    0.604920   -1.398712
  H     -2.585526    1.722987   -0.292794
  H     -0.641647    1.518880    1.291045
  H     -0.215151    2.225668   -0.284609

 Total Charge           Charge          ....    0
 Multiplicity           Mult            ....    1
 Number of Electrons    NEL             ....   58
 Basis Dimension        Dim             ....  100

ORBITAL ENERGIES
----------------

  NO   OCC          E(Eh)            E(eV)
   0   2.0000      -9.935604      -270.3615
   1   2.0000      -9.901727      -269.4397
   2   2.0000      -9.889929      -269.1186
   3   2.0000      -9.879337      -268.8304
   4   2.0000      -6.594071      -179.4338
   5   2.0000      -4.665767      -126.9620
   6   2.0000      -4.649191      -126.5109
   7   2.0000      -4.648818      -126.5008
   8   2.0000      -1.801829       -49.0303
   9   2.0000      -1.797542       -48.9136
  10   2.0000      -1.797246       -48.9056
  11   2.0000      -1.783867       -48.5415
  12   2.0000      -1.783844       -48.5409
  13   2.0000      -0.737509       -20.0686
  14   2.0000      -0.676366       -18.4049
  15   2.0000      -0.617309       -16.7978
  16   2.0000      -0.559803       -15.2330
  17   2.0000      -0.519718       -14.1422
  18   2.0000      -0.432327       -11.7642
  19   2.0000      -0.406988       -11.0747
  20   2.0000      -0.393529       -10.7085
  21   2.0000      -0.369428       -10.0526
  22   2.0000      -0.342704        -9.3254
  23   2.0000      -0.310434        -8.4473
  24   2.0000      -0.307112        -8.3570
  25   2.0000      -0.297049        -8.0831
  26   2.0000      -0.288921        -7.8619
  27   2.0000      -0.218758        -5.9527
  28   2.0000      -0.216362        -5.8875
  29   0.0000      -0.056026        -1.5245
  30   0.0000       0.034592         0.9413
  31   0.0000       0.056150         1.5279
  32   0.0000       0.067493         1.8366
  33   0.0000       0.084830         2.3083

MULLIKEN ATOMIC CHARGES
-----------------------
   0 C :   -0.262163
   1 C :   -0.204092
   2 C :   -0.160652
   3 C :   -0.330401
   4 I :   -0.052005
   5 H :    0.096395
   6 H :    0.101526
   7 H :    0.106771
   8 H :    0.109274
   9 H :    0.086729
  10 H :    0.105676
  11 H :    0.098104
  12 H :    0.150600
  13 H :    0.154238
Sum of atomic charges:   -0.0000000

LOEWDIN ATOMIC CHARGES
----------------------
   0 C :   -0.339117
   1 C :   -0.240002
   2 C :   -0.244808
   3 C :   -0.327098
   4 I :    0.049166
   5 H :    0.115781
   6 H :    0.118937
   7 H :    0.121416
   8 H :    0.118033
   9 H :    0.115135
  10 H :    0.122708
  11 H :    0.127220
  12 H :    0.130712
  13 H :    0.131917

  Mayer bond orders larger than 0.100000
B(  0-C ,  1-C ) :   1.1589 B(  0-C ,  5-H ) :   0.9554 B(  0-C ,  6-H ) :   0.9543
B(  0-C ,  7-H ) :   0.9532 B(  1-C ,  2-C ) :   1.1268 B(  1-C ,  8-H ) :   0.9174
B(  1-C ,  9-H ) :   0.9272 B(  2-C ,  3-C ) :   1.1083 B(  2-C , 10-H ) :   0.9224
B(  2-C , 11-H ) :   0.9018 B(  3-C ,  4-I ) :   1.0343 B(  3-C , 12-H ) :   0.9197
B(  3-C , 13-H ) :   0.9237

Dispersion correction           -0.010936420
FINAL SINGLE POINT ENERGY      -455.119140503888

DIPOLE MOMENT
-------------

Method             : SCF
Type of density    : Electron Density
Multiplicity       :   1
Irrep              :   0
Energy             :  -455.1680434107856854 Eh
Relativity type    :
Basis              : AO
                                X                 Y                 Z
Electronic contribution:     93.948336201     -11.667360285      -1.319622565
Nuclear contribution   :    -94.565115495      12.060498494       1.372787413
                        -----------------------------------------
Total Dipole Moment    :     -0.616779294       0.393138209       0.053164847
                        -----------------------------------------
Magnitude (a.u.)       :      0.733349064
Magnitude (Debye)      :      1.864025185

Rotational constants in cm-1:             0.250549             0.032416             0.029940
Rotational constants in MHz :          7511.269139           971.800124           897.578004

                             ****ORCA TERMINATED NORMALLY****
TOTAL RUN TIME: 0 days 0 hours 0 minutes 14 seconds 59 msec
