                         Program Version 6.0.0  -   RELEASE  -
|  1> ! r2scan-3c def2/J RI DEFGRID2 scfconv6 printgap
|  2> %output
|  3>     printlevel normal
|  4> end
|  5> * xyz 0 1
|  6> C -2.359409967 -1.2895729983 -0.1857234391
|  7> C -1.9290200302 -0.2045638093 0.7955047185
|  8> C -1.553716888 1.1135019195 0.1162628892
|  9> C -0.3666302187 0.9839750821 -0.8469298177
| 10> C 0.8532867417 0.4871315151 -0.1182374684
| 11> O 1.4028028917 1.0608199501 0.7988888562
| 12> O 1.2721163182 -0.6801983747 -0.5971327002
| 13> C 2.4261186343 -1.2698023214 0.0063146062
| 14> H -3.1513451772 -0.9213098934 -0.8334078787
| 15> H -1.5241152907 -1.6123237765 -0.8015434752
| 16> H -2.7329443376 -2.1550843413 0.3557318445
| 17> H -2.7477108671 -0.006622424 1.49062327
| 18> H -1.0796843759 -0.5599493646 1.3850072207
| 19> H -1.2941388536 1.8433297179 0.885798776
| 20> H -2.4113790864 1.4919761758 -0.4411167334
| 21> H -0.1344911121 1.9690657851 -1.2538815466
| 22> H -0.5925614003 0.2995482171 -1.6617861886
| 23> H 3.2482519611 -0.5532395257 0.0178732356
| 24> H 2.6678011817 -2.1347968943 -0.6030367069
| 25> H 2.199565515 -1.5655215949 1.0314075814
| 26> *
| 27>
| 28>                          ****END OF INPUT****

CARTESIAN COORDINATES (ANGSTROEM)
---------------------------------
  C     -2.359410   -1.289573   -0.185723
  C     -1.929020   -0.204564    0.795505
  C     -1.553717    1.113502    0.116263
  C     -0.366630    0.983975   -0.846930
  C      0.853287    0.487132   -0.118237
  O      1.402803    1.060820    0.798889
  O      1.272116   -0.680198   -0.597133
  C      2.426119   -1.269802    0.006315
  H     -3.151345   -0.921310   -0.833408
  H     -1.524115   -1.612324   -0.801543
  H     -2.732944   -2.155084    0.355732
  H     -2.747711   -0.006622    1.490623
  H     -1.079684   -0.559949    1.385007
  H     -1.294139    1.843330    0.885799
  H     -2.411379    1.491976   -0.441117
  H     -0.134491    1.969066   -1.253882
  H     -0.592561    0.299548   -1.661786
  H      3.248252   -0.553240    0.017873
  H      2.667801   -2.134797   -0.603037
  H      2.199566   -1.565522    1.031408

 Total Charge           Charge          ....    0
 Multiplicity           Mult            ....    1
 Number of Electrons    NEL             ....   64
 Basis Dimension        Dim             ....  222

ORBITAL ENERGIES
----------------

  NO   OCC          E(Eh)            E(eV)
   0   2.0000     -19.000910      -517.0410
   1   2.0000     -18.929533      -515.0988
   2   2.0000     -10.152576      -276.2656
   3   2.0000     -10.087250      -274.4880
   4   2.0000     -10.041075      -273.2315
   5   2.0000     -10.034000      -273.0390
   6   2.0000     -10.027896      -272.8729
   7   2.0000     -10.017324      -272.5852
   8   2.0000      -1.074182       -29.2300
   9   2.0000      -0.976578       -26.5740
  10   2.0000      -0.779209       -21.2033
  11   2.0000      -0.724450       -19.7133
  12   2.0000      -0.686133       -18.6706
  13   2.0000      -0.623430       -16.9644
  14   2.0000      -0.556240       -15.1361
  15   2.0000      -0.523714       -14.2510
  16   2.0000      -0.469532       -12.7766
  17   2.0000      -0.458993       -12.4898
  18   2.0000      -0.447476       -12.1764
  19   2.0000      -0.428026       -11.6472
  20   2.0000      -0.419698       -11.4206
  21   2.0000      -0.389962       -10.6114
  22   2.0000      -0.375932       -10.2296
  23   2.0000      -0.362203        -9.8560
  24   2.0000      -0.355719        -9.6796
  25   2.0000      -0.340149        -9.2559
  26   2.0000      -0.321165        -8.7393
  27   2.0000      -0.303886        -8.2692
  28   2.0000      -0.298131        -8.1126
  29   2.0000      -0.297074        -8.0838
  30   2.0000      -0.275081        -7.4853
  31   2.0000      -0.236946        -6.4476
  32   0.0000      -0.017682        -0.4812
  33   0.0000       0.062057         1.6887
  34   0.0000       0.089307         2.4302
  35   0.0000       0.106315         2.8930
  36   0.0000       0.117831         3.2064

MULLIKEN ATOMIC CHARGES
-----------------------
   0 C :   -0.503217
   1 C :   -0.214571
   2 C :   -0.281436
   3 C :   -0.325919
   4 C :    0.336458
   5 O :   -0.411586
   6 O :   -0.178292
   7 C :   -0.296190
   8 H :    0.146252
   9 H :    0.159852
  10 H :    0.146918
  11 H :    0.145292
  12 H :    0.147420
  13 H :    0.165947
  14 H :    0.151031
  15 H :    0.166168
  16 H :    0.171390
  17 H :    0.165553
  18 H :    0.150658
  19 H :    0.158272
Sum of atomic charges:   -0.0000000

LOEWDIN ATOMIC CHARGES
----------------------
   0 C :   -0.425469
   1 C :   -0.311223
   2 C :   -0.286473
   3 C :   -0.231120
   4 C :    0.348537
   5 O :   -0.424860
   6 O :   -0.606340
   7 C :   -0.045580
   8 H :    0.150183
   9 H :    0.153138
  10 H :    0.152286
  11 H :    0.154384
  12 H :    0.157850
  13 H :    0.168454
  14 H :    0.156513
  15 H :    0.181748
  16 H :    0.177357
  17 H :    0.179408
  18 H :    0.176156
  19 H :    0.175048

  Mayer bond orders larger than 0.100000
B(  0-C ,  1-C ) :   0.8899 B(  0-C ,  8-H ) :   0.9821 B(  0-C ,  9-H ) :   0.9757
B(  0-C , 10-H ) :   0.9691 B(  1-C ,  2-C ) :   0.9019 B(  1-C , 11-H ) :   0.9597
B(  1-C , 12-H ) :   0.9667 B(  2-C ,  3-C ) :   0.8759 B(  2-C , 13-H ) :   0.9704
B(  2-C , 14-H ) :   0.9823 B(  3-C ,  4-C ) :   0.9241 B(  3-C , 15-H ) :   0.9374
B(  3-C , 16-H ) :   1.0063 B(  4-C ,  5-O ) :   1.8279 B(  4-C ,  6-O ) :   1.0590
B(  6-O ,  7-C ) :   0.8531 B(  7-C , 17-H ) :   0.9631 B(  7-C , 18-H ) :   0.9692
B(  7-C , 19-H ) :   0.9609

Dispersion correction           -0.005416698
FINAL SINGLE POINT ENERGY      -386.231133628084

DIPOLE MOMENT
-------------

Method             : SCF
Type of density    : Electron Density
Multiplicity       :   1
Irrep              :   0
Energy             :  -386.2377484850361498 Eh
Relativity type    :
Basis              : AO
                                X                 Y                 Z
Electronic contribution:      6.840314187       3.104116971      -0.046778351
Nuclear contribution   :     -7.046076115      -3.657829415      -0.398853832
                        -----------------------------------------
Total Dipole Moment    :     -0.205761928      -0.553712444      -0.445632183
                        -----------------------------------------
Magnitude (a.u.)       :      0.739948299
Magnitude (Debye)      :      1.880799106

Rotational constants in cm-1:             0.102399             0.044016             0.036662
Rotational constants in MHz :          3069.859041          1319.577303          1099.091701

                             ****ORCA TERMINATED NORMALLY****
TOTAL RUN TIME: 0 days 0 hours 0 minutes 26 seconds 918 msec
