                         Program Version 6.0.0  -   RELEASE  -
|  1> ! r2scan-3c def2/J RI DEFGRID2 scfconv6 printgap
|  2> %output
|  3>     printlevel normal
|  4> end
|  5> %cpcm
|  6>     smd true
|  7>     smdsolvent "water"
|  8> end
|  9> * xyz 0 1
| 10> C -2.359409967 -1.2895729983 -0.1857234391
| 11> C -1.9290200302 -0.2045638093 0.7955047185
| 12> C -1.553716888 1.1135019195 0.1162628892
| 13> C -0.3666302187 0.9839750821 -0.8469298177
| 14> C 0.8532867417 0.4871315151 -0.1182374684
| 15> O 1.4028028917 1.0608199501 0.7988888562
| 16> O 1.2721163182 -0.6801983747 -0.5971327002
| 17> C 2.4261186343 -1.2698023214 0.0063146062
| 18> H -3.1513451772 -0.9213098934 -0.8334078787
| 19> H -1.5241152907 -1.6123237765 -0.8015434752
| 20> H -2.7329443376 -2.1550843413 0.3557318445
| 21> H -2.7477108671 -0.006622424 1.49062327
| 22> H -1.0796843759 -0.5599493646 1.3850072207
| 23> H -1.2941388536 1.8433297179 0.885798776
| 24> H -2.4113790864 1.4919761758 -0.4411167334
| 25> H -0.1344911121 1.9690657851 -1.2538815466
| 26> H -0.5925614003 0.2995482171 -1.6617861886
| 27> H 3.2482519611 -0.5532395257 0.0178732356
| 28> H 2.6678011817 -2.1347968943 -0.6030367069
| 29> H 2.199565515 -1.5655215949 1.0314075814
| 30> *
| 31>
| 32>                          ****END OF INPUT****

CARTESIAN COORDINATES (ANGSTROEM)
---------------------------------
  C     -2.359410   -1.289573   -0.185723
  C     -1.929020   -0.204564    0.795505
  C     -1.553717    1.113502    0.116263
  C     -0.366630    0.983975   -0.846930
  C      0.853287    0.487132   -0.118237
  O      1.402803    1.060820    0.798889
  O      1.272116   -0.680198   -0.597133
  C      2.426119   -1.269802    0.006315
  H     -3.151345   -0.921310   -0.833408
  H     -1.524115   -1.612324   -0.801543
  H     -2.732944   -2.155084    0.355732
  H     -2.747711   -0.006622    1.490623
  H     -1.079684   -0.559949    1.385007
  H     -1.294139    1.843330    0.885799
  H     -2.411379    1.491976   -0.441117
  H     -0.134491    1.969066   -1.253882
  H     -0.592561    0.299548   -1.661786
  H      3.248252   -0.553240    0.017873
  H      2.667801   -2.134797   -0.603037
  H      2.199566   -1.565522    1.031408

 Total Charge           Charge          ....    0
 Multiplicity           Mult            ....    1
 Number of Electrons    NEL             ....   64
 Basis Dimension        Dim             ....  222

ORBITAL ENERGIES
----------------

  NO   OCC          E(Eh)            E(eV)
   0   2.0000     -19.005548      -517.1673
   1   2.0000     -18.944598      -515.5087
   2   2.0000     -10.162361      -276.5319
   3   2.0000     -10.076389      -274.1925
   4   2.0000     -10.035094      -273.0688
   5   2.0000     -10.026902      -272.8459
   6   2.0000     -10.019830      -272.6534
   7   2.0000     -10.008331      -272.3405
   8   2.0000      -1.080368       -29.3983
   9   2.0000      -0.989475       -26.9250
  10   2.0000      -0.773485       -21.0476
  11   2.0000      -0.719276       -19.5725
  12   2.0000      -0.679273       -18.4840
  13   2.0000      -0.616308       -16.7706
  14   2.0000      -0.550214       -14.9721
  15   2.0000      -0.521051       -14.1785
  16   2.0000      -0.469857       -12.7855
  17   2.0000      -0.461331       -12.5535
  18   2.0000      -0.450127       -12.2486
  19   2.0000      -0.421554       -11.4711
  20   2.0000      -0.418656       -11.3922
  21   2.0000      -0.386426       -10.5152
  22   2.0000      -0.372594       -10.1388
  23   2.0000      -0.355926        -9.6852
  24   2.0000      -0.348425        -9.4811
  25   2.0000      -0.337644        -9.1878
  26   2.0000      -0.321447        -8.7470
  27   2.0000      -0.296951        -8.0804
  28   2.0000      -0.291301        -7.9267
  29   2.0000      -0.289714        -7.8835
  30   2.0000      -0.281498        -7.6600
  31   2.0000      -0.252727        -6.8770
  32   0.0000      -0.024893        -0.6774
  33   0.0000       0.067193         1.8284
  34   0.0000       0.097933         2.6649
  35   0.0000       0.117352         3.1933
  36   0.0000       0.122744         3.3400

MULLIKEN ATOMIC CHARGES
-----------------------
   0 C :   -0.531482
   1 C :   -0.224992
   2 C :   -0.297035
   3 C :   -0.341417
   4 C :    0.378901
   5 O :   -0.497677
   6 O :   -0.193375
   7 C :   -0.331269
   8 H :    0.159205
   9 H :    0.163300
  10 H :    0.157475
  11 H :    0.155940
  12 H :    0.151796
  13 H :    0.164251
  14 H :    0.170445
  15 H :    0.192819
  16 H :    0.187077
  17 H :    0.177698
  18 H :    0.178597
  19 H :    0.179744
Sum of atomic charges:    0.0000000

LOEWDIN ATOMIC CHARGES
----------------------
   0 C :   -0.431181
   1 C :   -0.313592
   2 C :   -0.286565
   3 C :   -0.228739
   4 C :    0.358655
   5 O :   -0.486363
   6 O :   -0.606936
   7 C :   -0.043151
   8 H :    0.154391
   9 H :    0.153806
  10 H :    0.154627
  11 H :    0.157617
  12 H :    0.157948
  13 H :    0.165719
  14 H :    0.164226
  15 H :    0.190777
  16 H :    0.184839
  17 H :    0.183465
  18 H :    0.188372
  19 H :    0.182083

  Mayer bond orders larger than 0.100000
B(  0-C ,  1-C ) :   0.8880 B(  0-C ,  8-H ) :   0.9784 B(  0-C ,  9-H ) :   0.9745
B(  0-C , 10-H ) :   0.9671 B(  1-C ,  2-C ) :   0.8950 B(  1-C , 11-H ) :   0.9581
B(  1-C , 12-H ) :   0.9677 B(  2-C ,  3-C ) :   0.8593 B(  2-C , 13-H ) :   0.9760
B(  2-C , 14-H ) :   0.9757 B(  3-C ,  4-C ) :   0.9262 B(  3-C , 15-H ) :   0.9321
B(  3-C , 16-H ) :   0.9962 B(  4-C ,  5-O ) :   1.7603 B(  4-C ,  6-O ) :   1.0836
B(  6-O ,  7-C ) :   0.8335 B(  7-C , 17-H ) :   0.9581 B(  7-C , 18-H ) :   0.9592
B(  7-C , 19-H ) :   0.9551

Dispersion correction           -0.005416698
FINAL SINGLE POINT ENERGY      -386.236181402708

DIPOLE MOMENT
-------------

Method             : SCF
Type of density    : Electron Density
Multiplicity       :   1
Irrep              :   0
Energy             :  -386.2427962596603948 Eh
Relativity type    :
Basis              : AO
                                X                 Y                 Z
Electronic contribution:      6.715765046       2.900240761      -0.296326033
Nuclear contribution   :     -7.046076115      -3.657829415      -0.398853832
                        -----------------------------------------
Total Dipole Moment    :     -0.330311069      -0.757588654      -0.695179865
                        -----------------------------------------
Magnitude (a.u.)       :      1.079963433
Magnitude (Debye)      :      2.745048893

Rotational constants in cm-1:             0.102399             0.044016             0.036662
Rotational constants in MHz :          3069.859041          1319.577303          1099.091701

                             ****ORCA TERMINATED NORMALLY****
TOTAL RUN TIME: 0 days 0 hours 0 minutes 35 seconds 140 msec
