                         Program Version 6.0.0  -   RELEASE  -
|  1> ! r2scan-3c def2/J RI DEFGRID2 scfconv6 printgap
|  2> %output
|  3>     printlevel normal
|  4> end
|  5> * xyz 0 1
|  6> C -3.5472402188 0.1307637912 1.8907208799
|  7> C -3.0509896536 0.5492861475 0.5056445029
|  8> H -3.1862285499 1.6287297683 0.3856053026
|  9> C -1.5836278291 0.2112954075 0.3353773883
| 10> C -1.1902529851 -1.1365182734 0.2252415498
| 11> C 0.1277459692 -1.471116184 0.0955061897
| 12> C 1.1292962084 -0.4777546189 0.0733072772
| 13> C 2.4951055753 -0.8038628104 -0.0572486762
| 14> C 3.4459045004 0.1860960568 -0.0738144376
| 15> C 3.054139957 1.5411042907 0.0405890865
| 16> C 1.7404281679 1.8758629834 0.166461937
| 17> C 0.7383756508 0.8802943844 0.1865166353
| 18> C -0.6281941207 1.1948827409 0.313021644
| 19> O 4.7892404674 -0.0096132121 -0.1944080119
| 20> C 5.2711875313 -1.3338469919 -0.3143826553
| 21> C -3.8252677296 -0.1669992153 -0.5867888376
| 22> O -4.4784397572 -1.1681594393 -0.409441983
| 23> O -3.727652784 0.3518141287 -1.810298879
| 24> H -2.9476891259 0.6105820114 2.658985929
| 25> H -4.5889153917 0.4144314109 2.0175601488
| 26> H -3.474254759 -0.9473324042 2.0055349894
| 27> H -1.9491435136 -1.9057368501 0.2372151309
| 28> H 0.418882958 -2.5075152569 0.008386518
| 29> H 2.7610312169 -1.8456351414 -0.1418760987
| 30> H 3.8320926614 2.2878296814 0.0237328105
| 31> H 1.4495018308 2.9116735861 0.2535615446
| 32> H -0.9082572785 2.2345710293 0.4034911859
| 33> H 5.0175589776 -1.9265896036 0.5683588553
| 34> H 6.3516695343 -1.2405861996 -0.3953431996
| 35> H 4.8747447471 -1.8172473341 -1.2111017775
| 36> H -3.183974688 1.1583009667 -1.8609393875
| 37> *
| 38>
| 39>                          ****END OF INPUT****

CARTESIAN COORDINATES (ANGSTROEM)
---------------------------------
  C     -3.547240    0.130764    1.890721
  C     -3.050990    0.549286    0.505645
  H     -3.186229    1.628730    0.385605
  C     -1.583628    0.211295    0.335377
  C     -1.190253   -1.136518    0.225242
  C      0.127746   -1.471116    0.095506
  C      1.129296   -0.477755    0.073307
  C      2.495106   -0.803863   -0.057249
  C      3.445905    0.186096   -0.073814
  C      3.054140    1.541104    0.040589
  C      1.740428    1.875863    0.166462
  C      0.738376    0.880294    0.186517
  C     -0.628194    1.194883    0.313022
  O      4.789240   -0.009613   -0.194408
  C      5.271188   -1.333847   -0.314383
  C     -3.825268   -0.166999   -0.586789
  O     -4.478440   -1.168159   -0.409442
  O     -3.727653    0.351814   -1.810299
  H     -2.947689    0.610582    2.658986
  H     -4.588915    0.414431    2.017560
  H     -3.474255   -0.947332    2.005535
  H     -1.949144   -1.905737    0.237215
  H      0.418883   -2.507515    0.008387
  H      2.761031   -1.845635   -0.141876
  H      3.832093    2.287830    0.023733
  H      1.449502    2.911674    0.253562
  H     -0.908257    2.234571    0.403491
  H      5.017559   -1.926590    0.568359
  H      6.351670   -1.240586   -0.395343
  H      4.874745   -1.817247   -1.211102
  H     -3.183975    1.158301   -1.860939

 Total Charge           Charge          ....    0
 Multiplicity           Mult            ....    1
 Number of Electrons    NEL             ....  122
 Basis Dimension        Dim             ....  408

ORBITAL ENERGIES
----------------

  NO   OCC          E(Eh)            E(eV)
   0   2.0000     -19.003733      -517.1179
   1   2.0000     -18.995000      -516.8802
   2   2.0000     -18.932741      -515.1861
   3   2.0000     -10.161283      -276.5026
   4   2.0000     -10.104300      -274.9520
   5   2.0000     -10.093538      -274.6591
   6   2.0000     -10.066165      -273.9143
   7   2.0000     -10.055299      -273.6186
   8   2.0000     -10.053811      -273.5781
   9   2.0000     -10.049960      -273.4733
  10   2.0000     -10.046975      -273.3921
  11   2.0000     -10.044569      -273.3266
  12   2.0000     -10.042939      -273.2823
  13   2.0000     -10.042127      -273.2602
  14   2.0000     -10.040553      -273.2173
  15   2.0000     -10.039463      -273.1877
  16   2.0000     -10.027915      -272.8734
  17   2.0000      -1.072895       -29.1949
  18   2.0000      -1.042530       -28.3687
  19   2.0000      -0.983219       -26.7548
  20   2.0000      -0.856241       -23.2995
  21   2.0000      -0.813797       -22.1445
  22   2.0000      -0.770709       -20.9721
  23   2.0000      -0.750171       -20.4132
  24   2.0000      -0.720251       -19.5990
  25   2.0000      -0.699589       -19.0368
  26   2.0000      -0.673329       -18.3222
  27   2.0000      -0.632926       -17.2228
  28   2.0000      -0.604168       -16.4402
  29   2.0000      -0.593095       -16.1389
  30   2.0000      -0.579915       -15.7803
  31   2.0000      -0.569279       -15.4909
  32   2.0000      -0.511010       -13.9053
  33   2.0000      -0.504004       -13.7146
  34   2.0000      -0.494539       -13.4571
  35   2.0000      -0.465607       -12.6698
  36   2.0000      -0.447130       -12.1670
  37   2.0000      -0.446055       -12.1378
  38   2.0000      -0.441012       -12.0005
  39   2.0000      -0.426575       -11.6077
  40   2.0000      -0.422872       -11.5069
  41   2.0000      -0.409617       -11.1462
  42   2.0000      -0.400542       -10.8993
  43   2.0000      -0.392913       -10.6917
  44   2.0000      -0.388834       -10.5807
  45   2.0000      -0.382031       -10.3956
  46   2.0000      -0.379308       -10.3215
  47   2.0000      -0.366755        -9.9799
  48   2.0000      -0.355597        -9.6763
  49   2.0000      -0.341170        -9.2837
  50   2.0000      -0.333705        -9.0806
  51   2.0000      -0.328111        -8.9284
  52   2.0000      -0.325629        -8.8608
  53   2.0000      -0.312349        -8.4995
  54   2.0000      -0.302861        -8.2413
  55   2.0000      -0.291265        -7.9257
  56   2.0000      -0.286808        -7.8044
  57   2.0000      -0.270241        -7.3536
  58   2.0000      -0.239965        -6.5298
  59   2.0000      -0.224352        -6.1049
  60   2.0000      -0.200458        -5.4547
  61   0.0000      -0.071439        -1.9439
  62   0.0000      -0.041529        -1.1301
  63   0.0000      -0.020182        -0.5492
  64   0.0000      -0.008855        -0.2409
  65   0.0000       0.036464         0.9922

MULLIKEN ATOMIC CHARGES
-----------------------
   0 C :   -0.491440
   1 C :   -0.198093
   2 H :    0.159666
   3 C :    0.162218
   4 C :   -0.208696
   5 C :   -0.291680
   6 C :    0.229764
   7 C :   -0.362745
   8 C :    0.364755
   9 C :   -0.313299
  10 C :   -0.263689
  11 C :    0.182069
  12 C :   -0.279463
  13 O :   -0.179096
  14 C :   -0.330429
  15 C :    0.341528
  16 O :   -0.379505
  17 O :   -0.324704
  18 H :    0.152645
  19 H :    0.154421
  20 H :    0.181060
  21 H :    0.170100
  22 H :    0.140479
  23 H :    0.144987
  24 H :    0.158929
  25 H :    0.143636
  26 H :    0.141240
  27 H :    0.154210
  28 H :    0.156898
  29 H :    0.154438
  30 H :    0.329796
Sum of atomic charges:    0.0000000

LOEWDIN ATOMIC CHARGES
----------------------
   0 C :   -0.371495
   1 C :   -0.166282
   2 H :    0.176268
   3 C :   -0.085087
   4 C :   -0.138075
   5 C :   -0.137942
   6 C :   -0.045509
   7 C :   -0.160415
   8 C :    0.191854
   9 C :   -0.117908
  10 C :   -0.134832
  11 C :   -0.064619
  12 C :   -0.144653
  13 O :   -0.680435
  14 C :   -0.053563
  15 C :    0.350394
  16 O :   -0.394194
  17 O :   -0.391409
  18 H :    0.158492
  19 H :    0.162005
  20 H :    0.172891
  21 H :    0.186389
  22 H :    0.171650
  23 H :    0.179012
  24 H :    0.183061
  25 H :    0.171999
  26 H :    0.171586
  27 H :    0.166249
  28 H :    0.181161
  29 H :    0.166334
  30 H :    0.297074

  Mayer bond orders larger than 0.100000
B(  0-C ,  1-C ) :   0.9606 B(  0-C , 18-H ) :   0.9700 B(  0-C , 19-H ) :   0.9682
B(  0-C , 20-H ) :   0.9697 B(  1-C ,  2-H ) :   1.0128 B(  1-C ,  3-C ) :   0.7725
B(  1-C , 15-C ) :   0.9344 B(  2-H ,  3-C ) :  -0.1001 B(  3-C ,  4-C ) :   1.2729
B(  3-C , 12-C ) :   1.4403 B(  4-C ,  5-C ) :   1.4976 B(  4-C , 21-H ) :   0.9384
B(  5-C ,  6-C ) :   1.1786 B(  5-C , 22-H ) :   0.9661 B(  6-C ,  7-C ) :   1.1903
B(  6-C , 11-C ) :   1.5180 B(  7-C ,  8-C ) :   1.4212 B(  7-C , 23-H ) :   0.9034
B(  8-C ,  9-C ) :   1.2741 B(  8-C , 13-O ) :   1.0650 B(  9-C , 10-C ) :   1.4516
B(  9-C , 24-H ) :   0.9432 B( 10-C , 11-C ) :   1.1974 B( 10-C , 25-H ) :   0.9497
B( 11-C , 12-C ) :   1.2142 B( 12-C , 26-H ) :   0.9530 B( 13-O , 14-C ) :   0.8571
B( 14-C , 27-H ) :   0.9623 B( 14-C , 28-H ) :   0.9677 B( 14-C , 29-H ) :   0.9623
B( 15-C , 16-O ) :   1.9619 B( 15-C , 17-O ) :   1.0631 B( 17-O , 30-H ) :   0.8649

Dispersion correction           -0.013147782
FINAL SINGLE POINT ENERGY      -767.444375784950

DIPOLE MOMENT
-------------

Method             : SCF
Type of density    : Electron Density
Multiplicity       :   1
Irrep              :   0
Energy             :  -767.4446824124024715 Eh
Relativity type    :
Basis              : AO
                                X                 Y                 Z
Electronic contribution:     -2.718627286       1.642059430      -4.369441596
Nuclear contribution   :      4.140214887      -0.898359306       4.611161927
                        -----------------------------------------
Total Dipole Moment    :      1.421587601       0.743700124       0.241720331
                        -----------------------------------------
Magnitude (a.u.)       :      1.622476472
Magnitude (Debye)      :      4.124007450

Rotational constants in cm-1:             0.044564             0.006927             0.006602
Rotational constants in MHz :          1336.008724           207.655152           197.916595

                             ****ORCA TERMINATED NORMALLY****
TOTAL RUN TIME: 0 days 0 hours 1 minutes 26 seconds 509 msec
