                         Program Version 6.0.0  -   RELEASE  -
|  1> ! r2scan-3c def2/J RI DEFGRID2 scfconv6 printgap
|  2> %output
|  3>     printlevel normal
|  4> end
|  5> %cpcm
|  6>     smd true
|  7>     smdsolvent "water"
|  8> end
|  9> * xyz 0 1
| 10> C -3.5472402188 0.1307637912 1.8907208799
| 11> C -3.0509896536 0.5492861475 0.5056445029
| 12> H -3.1862285499 1.6287297683 0.3856053026
| 13> C -1.5836278291 0.2112954075 0.3353773883
| 14> C -1.1902529851 -1.1365182734 0.2252415498
| 15> C 0.1277459692 -1.471116184 0.0955061897
| 16> C 1.1292962084 -0.4777546189 0.0733072772
| 17> C 2.4951055753 -0.8038628104 -0.0572486762
| 18> C 3.4459045004 0.1860960568 -0.0738144376
| 19> C 3.054139957 1.5411042907 0.0405890865
| 20> C 1.7404281679 1.8758629834 0.166461937
| 21> C 0.7383756508 0.8802943844 0.1865166353
| 22> C -0.6281941207 1.1948827409 0.313021644
| 23> O 4.7892404674 -0.0096132121 -0.1944080119
| 24> C 5.2711875313 -1.3338469919 -0.3143826553
| 25> C -3.8252677296 -0.1669992153 -0.5867888376
| 26> O -4.4784397572 -1.1681594393 -0.409441983
| 27> O -3.727652784 0.3518141287 -1.810298879
| 28> H -2.9476891259 0.6105820114 2.658985929
| 29> H -4.5889153917 0.4144314109 2.0175601488
| 30> H -3.474254759 -0.9473324042 2.0055349894
| 31> H -1.9491435136 -1.9057368501 0.2372151309
| 32> H 0.418882958 -2.5075152569 0.008386518
| 33> H 2.7610312169 -1.8456351414 -0.1418760987
| 34> H 3.8320926614 2.2878296814 0.0237328105
| 35> H 1.4495018308 2.9116735861 0.2535615446
| 36> H -0.9082572785 2.2345710293 0.4034911859
| 37> H 5.0175589776 -1.9265896036 0.5683588553
| 38> H 6.3516695343 -1.2405861996 -0.3953431996
| 39> H 4.8747447471 -1.8172473341 -1.2111017775
| 40> H -3.183974688 1.1583009667 -1.8609393875
| 41> *
| 42>
| 43>                          ****END OF INPUT****

CARTESIAN COORDINATES (ANGSTROEM)
---------------------------------
  C     -3.547240    0.130764    1.890721
  C     -3.050990    0.549286    0.505645
  H     -3.186229    1.628730    0.385605
  C     -1.583628    0.211295    0.335377
  C     -1.190253   -1.136518    0.225242
  C      0.127746   -1.471116    0.095506
  C      1.129296   -0.477755    0.073307
  C      2.495106   -0.803863   -0.057249
  C      3.445905    0.186096   -0.073814
  C      3.054140    1.541104    0.040589
  C      1.740428    1.875863    0.166462
  C      0.738376    0.880294    0.186517
  C     -0.628194    1.194883    0.313022
  O      4.789240   -0.009613   -0.194408
  C      5.271188   -1.333847   -0.314383
  C     -3.825268   -0.166999   -0.586789
  O     -4.478440   -1.168159   -0.409442
  O     -3.727653    0.351814   -1.810299
  H     -2.947689    0.610582    2.658986
  H     -4.588915    0.414431    2.017560
  H     -3.474255   -0.947332    2.005535
  H     -1.949144   -1.905737    0.237215
  H      0.418883   -2.507515    0.008387
  H      2.761031   -1.845635   -0.141876
  H      3.832093    2.287830    0.023733
  H      1.449502    2.911674    0.253562
  H     -0.908257    2.234571    0.403491
  H      5.017559   -1.926590    0.568359
  H      6.351670   -1.240586   -0.395343
  H      4.874745   -1.817247   -1.211102
  H     -3.183975    1.158301   -1.860939

 Total Charge           Charge          ....    0
 Multiplicity           Mult            ....    1
 Number of Electrons    NEL             ....  122
 Basis Dimension        Dim             ....  408

ORBITAL ENERGIES
----------------

  NO   OCC          E(Eh)            E(eV)
   0   2.0000     -19.004107      -517.1280
   1   2.0000     -18.990703      -516.7633
   2   2.0000     -18.949172      -515.6332
   3   2.0000     -10.171619      -276.7838
   4   2.0000     -10.099447      -274.8199
   5   2.0000     -10.073393      -274.1110
   6   2.0000     -10.056372      -273.6478
   7   2.0000     -10.049296      -273.4552
   8   2.0000     -10.049047      -273.4485
   9   2.0000     -10.044729      -273.3310
  10   2.0000     -10.039798      -273.1968
  11   2.0000     -10.037181      -273.1256
  12   2.0000     -10.036139      -273.0972
  13   2.0000     -10.035579      -273.0820
  14   2.0000     -10.035403      -273.0772
  15   2.0000     -10.032208      -272.9903
  16   2.0000     -10.020049      -272.6594
  17   2.0000      -1.078292       -29.3418
  18   2.0000      -1.037390       -28.2288
  19   2.0000      -0.995104       -27.0782
  20   2.0000      -0.851593       -23.1730
  21   2.0000      -0.808167       -21.9913
  22   2.0000      -0.764747       -20.8098
  23   2.0000      -0.743751       -20.2385
  24   2.0000      -0.713452       -19.4140
  25   2.0000      -0.692066       -18.8321
  26   2.0000      -0.663023       -18.0418
  27   2.0000      -0.627938       -17.0871
  28   2.0000      -0.597405       -16.2562
  29   2.0000      -0.589460       -16.0400
  30   2.0000      -0.571346       -15.5471
  31   2.0000      -0.562645       -15.3104
  32   2.0000      -0.501280       -13.6405
  33   2.0000      -0.499302       -13.5867
  34   2.0000      -0.487770       -13.2729
  35   2.0000      -0.459500       -12.5036
  36   2.0000      -0.442212       -12.0332
  37   2.0000      -0.437148       -11.8954
  38   2.0000      -0.434181       -11.8147
  39   2.0000      -0.433011       -11.7828
  40   2.0000      -0.415669       -11.3109
  41   2.0000      -0.408525       -11.1165
  42   2.0000      -0.393981       -10.7208
  43   2.0000      -0.389162       -10.5896
  44   2.0000      -0.384570       -10.4647
  45   2.0000      -0.376198       -10.2369
  46   2.0000      -0.374506       -10.1908
  47   2.0000      -0.359357        -9.7786
  48   2.0000      -0.346857        -9.4385
  49   2.0000      -0.336057        -9.1446
  50   2.0000      -0.327056        -8.8996
  51   2.0000      -0.323078        -8.7914
  52   2.0000      -0.319949        -8.7063
  53   2.0000      -0.305018        -8.3000
  54   2.0000      -0.302992        -8.2448
  55   2.0000      -0.294562        -8.0155
  56   2.0000      -0.283229        -7.7071
  57   2.0000      -0.267533        -7.2800
  58   2.0000      -0.254702        -6.9308
  59   2.0000      -0.221813        -6.0358
  60   2.0000      -0.196576        -5.3491
  61   0.0000      -0.067804        -1.8450
  62   0.0000      -0.039974        -1.0877
  63   0.0000      -0.024097        -0.6557
  64   0.0000      -0.004888        -0.1330
  65   0.0000       0.061842         1.6828

MULLIKEN ATOMIC CHARGES
-----------------------
   0 C :   -0.554608
   1 C :   -0.102529
   2 H :    0.199894
   3 C :    0.117487
   4 C :   -0.227752
   5 C :   -0.326123
   6 C :    0.175210
   7 C :   -0.343220
   8 C :    0.347821
   9 C :   -0.344793
  10 C :   -0.294084
  11 C :    0.129064
  12 C :   -0.253919
  13 O :   -0.219776
  14 C :   -0.339302
  15 C :    0.342444
  16 O :   -0.468222
  17 O :   -0.365358
  18 H :    0.171407
  19 H :    0.171603
  20 H :    0.182734
  21 H :    0.186591
  22 H :    0.174769
  23 H :    0.184994
  24 H :    0.185944
  25 H :    0.180808
  26 H :    0.178563
  27 H :    0.172122
  28 H :    0.174839
  29 H :    0.172088
  30 H :    0.391302
Sum of atomic charges:    0.0000000

LOEWDIN ATOMIC CHARGES
----------------------
   0 C :   -0.379732
   1 C :   -0.153885
   2 H :    0.198546
   3 C :   -0.085788
   4 C :   -0.150751
   5 C :   -0.148526
   6 C :   -0.060686
   7 C :   -0.160947
   8 C :    0.180070
   9 C :   -0.130333
  10 C :   -0.138223
  11 C :   -0.078307
  12 C :   -0.133960
  13 O :   -0.706006
  14 C :   -0.049936
  15 C :    0.360641
  16 O :   -0.466697
  17 O :   -0.389167
  18 H :    0.165532
  19 H :    0.165446
  20 H :    0.169428
  21 H :    0.189683
  22 H :    0.183620
  23 H :    0.193931
  24 H :    0.191369
  25 H :    0.185673
  26 H :    0.187522
  27 H :    0.175321
  28 H :    0.187693
  29 H :    0.175307
  30 H :    0.323159

  Mayer bond orders larger than 0.100000
B(  0-C ,  1-C ) :   0.9174 B(  0-C , 18-H ) :   0.9651 B(  0-C , 19-H ) :   0.9707
B(  0-C , 20-H ) :   0.9706 B(  1-C ,  2-H ) :   0.9786 B(  1-C ,  3-C ) :   0.7793
B(  1-C , 15-C ) :   0.9428 B(  3-C ,  4-C ) :   1.2260 B(  3-C , 12-C ) :   1.4636
B(  4-C ,  5-C ) :   1.4708 B(  4-C , 21-H ) :   0.9410 B(  5-C ,  6-C ) :   1.1886
B(  5-C , 22-H ) :   0.9761 B(  6-C ,  7-C ) :   1.2067 B(  6-C , 11-C ) :   1.4144
B(  7-C ,  8-C ) :   1.4131 B(  7-C , 23-H ) :   0.9093 B(  8-C ,  9-C ) :   1.2205
B(  8-C , 13-O ) :   1.0501 B(  9-C , 10-C ) :   1.4426 B(  9-C , 24-H ) :   0.9545
B( 10-C , 11-C ) :   1.2082 B( 10-C , 25-H ) :   0.9576 B( 11-C , 12-C ) :   1.2297
B( 12-C , 26-H ) :   0.9589 B( 13-O , 14-C ) :   0.8499 B( 14-C , 27-H ) :   0.9549
B( 14-C , 28-H ) :   0.9603 B( 14-C , 29-H ) :   0.9549 B( 15-C , 16-O ) :   1.8979
B( 15-C , 17-O ) :   1.1008 B( 17-O , 30-H ) :   0.8344

Dispersion correction           -0.013147782
FINAL SINGLE POINT ENERGY      -767.463280849308

DIPOLE MOMENT
-------------

Method             : SCF
Type of density    : Electron Density
Multiplicity       :   1
Irrep              :   0
Energy             :  -767.4635874767607220 Eh
Relativity type    :
Basis              : AO
                                X                 Y                 Z
Electronic contribution:     -2.465001085       2.168618081      -4.361292274
Nuclear contribution   :      4.140214887      -0.898359306       4.611161927
                        -----------------------------------------
Total Dipole Moment    :      1.675213802       1.270258775       0.249869653
                        -----------------------------------------
Magnitude (a.u.)       :      2.117152210
Magnitude (Debye)      :      5.381373254

Rotational constants in cm-1:             0.044564             0.006927             0.006602
Rotational constants in MHz :          1336.008724           207.655152           197.916595

                             ****ORCA TERMINATED NORMALLY****
TOTAL RUN TIME: 0 days 0 hours 1 minutes 46 seconds 572 msec
