                         Program Version 6.0.0  -   RELEASE  -
|  1> ! r2scan-3c def2/J RI DEFGRID2 scfconv6 printgap
|  2> %output
|  3>     printlevel normal
|  4> end
|  5> * xyz 0 1
|  6> C -3.542777184 1.6165704017 -0.9840804278
|  7> C -3.1238195382 0.1766758005 -0.7022925973
|  8> H -3.5010896961 -0.4845619199 -1.488146641
|  9> C -1.6252659844 -0.0342074889 -0.5848809494
| 10> C -1.1115188949 -1.316763184 -0.8614462436
| 11> C 0.2243382404 -1.5791824576 -0.7521353056
| 12> C 1.1289594214 -0.5707748018 -0.3592043611
| 13> C 2.5132813471 -0.8160400462 -0.2470153459
| 14> C 3.3658601579 0.1875124201 0.139950805
| 15> C 2.853478639 1.474365037 0.4289002626
| 16> C 1.5198052146 1.7295769321 0.3273389234
| 17> C 0.6161837652 0.7184977122 -0.0694130917
| 18> C -0.767510381 0.9562156791 -0.1815033526
| 19> O 4.716918226 0.0671545366 0.2811074694
| 20> C 5.3148223158 -1.185851786 0.0117878323
| 21> C -3.6733247273 -0.3394878655 0.6125670377
| 22> O -4.0744516275 -1.4737407377 0.7767681021
| 23> O -3.6231210121 0.5463770131 1.5895332129
| 24> H -4.6079991245 1.6524357635 -1.1984546369
| 25> H -3.3451283813 2.2539772401 -0.1279597361
| 26> H -2.9985749965 1.9925473485 -1.8458274825
| 27> H -1.797040959 -2.0986893045 -1.1553644181
| 28> H 0.6043039859 -2.567072015 -0.9675431665
| 29> H 2.8716545953 -1.8077140504 -0.4738820149
| 30> H 3.556701698 2.2350411403 0.7289889393
| 31> H 1.1360473896 2.7138073372 0.5490315177
| 32> H -1.132664609 1.9425805837 0.0556725824
| 33> H 4.9319203988 -1.9574756587 0.6848559239
| 34> H 6.3782455087 -1.0407480931 0.1873240375
| 35> H 5.1499862051 -1.4857147457 -1.0264122245
| 36> H -3.9346089755 0.1858323128 2.442044494
| 37> *
| 38>
| 39>                          ****END OF INPUT****

CARTESIAN COORDINATES (ANGSTROEM)
---------------------------------
  C     -3.542777    1.616570   -0.984080
  C     -3.123820    0.176676   -0.702293
  H     -3.501090   -0.484562   -1.488147
  C     -1.625266   -0.034207   -0.584881
  C     -1.111519   -1.316763   -0.861446
  C      0.224338   -1.579182   -0.752135
  C      1.128959   -0.570775   -0.359204
  C      2.513281   -0.816040   -0.247015
  C      3.365860    0.187512    0.139951
  C      2.853479    1.474365    0.428900
  C      1.519805    1.729577    0.327339
  C      0.616184    0.718498   -0.069413
  C     -0.767510    0.956216   -0.181503
  O      4.716918    0.067155    0.281107
  C      5.314822   -1.185852    0.011788
  C     -3.673325   -0.339488    0.612567
  O     -4.074452   -1.473741    0.776768
  O     -3.623121    0.546377    1.589533
  H     -4.607999    1.652436   -1.198455
  H     -3.345128    2.253977   -0.127960
  H     -2.998575    1.992547   -1.845827
  H     -1.797041   -2.098689   -1.155364
  H      0.604304   -2.567072   -0.967543
  H      2.871655   -1.807714   -0.473882
  H      3.556702    2.235041    0.728989
  H      1.136047    2.713807    0.549032
  H     -1.132665    1.942581    0.055673
  H      4.931920   -1.957476    0.684856
  H      6.378246   -1.040748    0.187324
  H      5.149986   -1.485715   -1.026412
  H     -3.934609    0.185832    2.442044

 Total Charge           Charge          ....    0
 Multiplicity           Mult            ....    1
 Number of Electrons    NEL             ....  122
 Basis Dimension        Dim             ....  408

ORBITAL ENERGIES
----------------

  NO   OCC          E(Eh)            E(eV)
   0   2.0000     -19.005556      -517.1675
   1   2.0000     -18.990507      -516.7580
   2   2.0000     -18.930894      -515.1358
   3   2.0000     -10.160876      -276.4915
   4   2.0000     -10.098952      -274.8064
   5   2.0000     -10.089976      -274.5622
   6   2.0000     -10.059863      -273.7428
   7   2.0000     -10.047802      -273.4146
   8   2.0000     -10.047502      -273.4064
   9   2.0000     -10.043242      -273.2905
  10   2.0000     -10.040962      -273.2285
  11   2.0000     -10.037121      -273.1240
  12   2.0000     -10.035944      -273.0919
  13   2.0000     -10.035175      -273.0710
  14   2.0000     -10.034381      -273.0494
  15   2.0000     -10.034040      -273.0401
  16   2.0000     -10.030520      -272.9443
  17   2.0000      -1.079767       -29.3819
  18   2.0000      -1.037838       -28.2410
  19   2.0000      -0.977179       -26.5904
  20   2.0000      -0.849702       -23.1216
  21   2.0000      -0.808577       -22.0025
  22   2.0000      -0.768563       -20.9137
  23   2.0000      -0.743676       -20.2365
  24   2.0000      -0.717703       -19.5297
  25   2.0000      -0.692317       -18.8389
  26   2.0000      -0.670447       -18.2438
  27   2.0000      -0.641943       -17.4682
  28   2.0000      -0.603785       -16.4298
  29   2.0000      -0.590799       -16.0764
  30   2.0000      -0.571096       -15.5403
  31   2.0000      -0.555355       -15.1120
  32   2.0000      -0.504157       -13.7188
  33   2.0000      -0.488012       -13.2795
  34   2.0000      -0.484604       -13.1868
  35   2.0000      -0.457327       -12.4445
  36   2.0000      -0.444316       -12.0904
  37   2.0000      -0.442010       -12.0277
  38   2.0000      -0.438975       -11.9451
  39   2.0000      -0.432284       -11.7630
  40   2.0000      -0.420699       -11.4478
  41   2.0000      -0.412704       -11.2302
  42   2.0000      -0.398985       -10.8569
  43   2.0000      -0.393839       -10.7169
  44   2.0000      -0.383121       -10.4253
  45   2.0000      -0.378145       -10.2898
  46   2.0000      -0.371377       -10.1057
  47   2.0000      -0.359801        -9.7907
  48   2.0000      -0.348552        -9.4846
  49   2.0000      -0.344383        -9.3711
  50   2.0000      -0.335833        -9.1385
  51   2.0000      -0.328274        -8.9328
  52   2.0000      -0.319629        -8.6975
  53   2.0000      -0.307986        -8.3807
  54   2.0000      -0.296552        -8.0696
  55   2.0000      -0.290558        -7.9065
  56   2.0000      -0.280943        -7.6448
  57   2.0000      -0.265131        -7.2146
  58   2.0000      -0.235614        -6.4114
  59   2.0000      -0.218012        -5.9324
  60   2.0000      -0.194041        -5.2801
  61   0.0000      -0.064604        -1.7580
  62   0.0000      -0.040764        -1.1092
  63   0.0000      -0.007807        -0.2124
  64   0.0000      -0.002055        -0.0559
  65   0.0000       0.050972         1.3870

MULLIKEN ATOMIC CHARGES
-----------------------
   0 C :   -0.528116
   1 C :   -0.089832
   2 H :    0.183198
   3 C :    0.172722
   4 C :   -0.237896
   5 C :   -0.300324
   6 C :    0.225401
   7 C :   -0.364408
   8 C :    0.366025
   9 C :   -0.319534
  10 C :   -0.264243
  11 C :    0.156198
  12 C :   -0.243814
  13 O :   -0.180112
  14 C :   -0.331563
  15 C :    0.300159
  16 O :   -0.385829
  17 O :   -0.333814
  18 H :    0.159150
  19 H :    0.167187
  20 H :    0.170815
  21 H :    0.157120
  22 H :    0.139448
  23 H :    0.144083
  24 H :    0.158182
  25 H :    0.144112
  26 H :    0.140885
  27 H :    0.154071
  28 H :    0.155965
  29 H :    0.153799
  30 H :    0.330964
Sum of atomic charges:    0.0000000

LOEWDIN ATOMIC CHARGES
----------------------
   0 C :   -0.382761
   1 C :   -0.143350
   2 H :    0.188828
   3 C :   -0.078987
   4 C :   -0.139166
   5 C :   -0.145040
   6 C :   -0.045561
   7 C :   -0.162294
   8 C :    0.191028
   9 C :   -0.121160
  10 C :   -0.133515
  11 C :   -0.064152
  12 C :   -0.125720
  13 O :   -0.681749
  14 C :   -0.054437
  15 C :    0.352792
  16 O :   -0.417782
  17 O :   -0.401911
  18 H :    0.160924
  19 H :    0.169529
  20 H :    0.162402
  21 H :    0.178026
  22 H :    0.170396
  23 H :    0.178268
  24 H :    0.182371
  25 H :    0.172078
  26 H :    0.176584
  27 H :    0.165972
  28 H :    0.180575
  29 H :    0.165887
  30 H :    0.301923

  Mayer bond orders larger than 0.100000
B(  0-C ,  1-C ) :   0.8554 B(  0-C , 18-H ) :   0.9705 B(  0-C , 19-H ) :   0.9635
B(  0-C , 20-H ) :   0.9870 B(  1-C ,  2-H ) :   0.9918 B(  1-C ,  3-C ) :   0.7935
B(  1-C , 15-C ) :   0.9831 B(  3-C ,  4-C ) :   1.2747 B(  3-C , 12-C ) :   1.4895
B(  4-C ,  5-C ) :   1.4771 B(  4-C , 21-H ) :   0.9423 B(  5-C ,  6-C ) :   1.1928
B(  5-C , 22-H ) :   0.9575 B(  6-C ,  7-C ) :   1.1812 B(  6-C , 11-C ) :   1.5289
B(  7-C ,  8-C ) :   1.4250 B(  7-C , 23-H ) :   0.9039 B(  8-C ,  9-C ) :   1.2725
B(  8-C , 13-O ) :   1.0636 B(  9-C , 10-C ) :   1.4504 B(  9-C , 24-H ) :   0.9436
B( 10-C , 11-C ) :   1.1969 B( 10-C , 25-H ) :   0.9503 B( 11-C , 12-C ) :   1.2140
B( 12-C , 26-H ) :   0.9428 B( 13-O , 14-C ) :   0.8574 B( 14-C , 27-H ) :   0.9626
B( 14-C , 28-H ) :   0.9681 B( 14-C , 29-H ) :   0.9627 B( 15-C , 16-O ) :   1.9277
B( 15-C , 17-O ) :   1.0385 B( 17-O , 30-H ) :   0.8588

Dispersion correction           -0.013108492
FINAL SINGLE POINT ENERGY      -767.446300225685

DIPOLE MOMENT
-------------

Method             : SCF
Type of density    : Electron Density
Multiplicity       :   1
Irrep              :   0
Energy             :  -767.4468636317678829 Eh
Relativity type    :
Basis              : AO
                                X                 Y                 Z
Electronic contribution:     -2.474240055      -1.115229652       3.380517874
Nuclear contribution   :      3.062839620       1.426642992      -3.371667769
                        -----------------------------------------
Total Dipole Moment    :      0.588599565       0.311413340       0.008850105
                        -----------------------------------------
Magnitude (a.u.)       :      0.665962492
Magnitude (Debye)      :      1.692742131

Rotational constants in cm-1:             0.042312             0.007274             0.006778
Rotational constants in MHz :          1268.468159           218.068706           203.212102

                             ****ORCA TERMINATED NORMALLY****
TOTAL RUN TIME: 0 days 0 hours 1 minutes 28 seconds 373 msec
