                         Program Version 6.0.0  -   RELEASE  -
|  1> ! r2scan-3c def2/J RI DEFGRID2 scfconv6 printgap
|  2> %output
|  3>     printlevel normal
|  4> end
|  5> %cpcm
|  6>     smd true
|  7>     smdsolvent "water"
|  8> end
|  9> * xyz 0 1
| 10> C -3.542777184 1.6165704017 -0.9840804278
| 11> C -3.1238195382 0.1766758005 -0.7022925973
| 12> H -3.5010896961 -0.4845619199 -1.488146641
| 13> C -1.6252659844 -0.0342074889 -0.5848809494
| 14> C -1.1115188949 -1.316763184 -0.8614462436
| 15> C 0.2243382404 -1.5791824576 -0.7521353056
| 16> C 1.1289594214 -0.5707748018 -0.3592043611
| 17> C 2.5132813471 -0.8160400462 -0.2470153459
| 18> C 3.3658601579 0.1875124201 0.139950805
| 19> C 2.853478639 1.474365037 0.4289002626
| 20> C 1.5198052146 1.7295769321 0.3273389234
| 21> C 0.6161837652 0.7184977122 -0.0694130917
| 22> C -0.767510381 0.9562156791 -0.1815033526
| 23> O 4.716918226 0.0671545366 0.2811074694
| 24> C 5.3148223158 -1.185851786 0.0117878323
| 25> C -3.6733247273 -0.3394878655 0.6125670377
| 26> O -4.0744516275 -1.4737407377 0.7767681021
| 27> O -3.6231210121 0.5463770131 1.5895332129
| 28> H -4.6079991245 1.6524357635 -1.1984546369
| 29> H -3.3451283813 2.2539772401 -0.1279597361
| 30> H -2.9985749965 1.9925473485 -1.8458274825
| 31> H -1.797040959 -2.0986893045 -1.1553644181
| 32> H 0.6043039859 -2.567072015 -0.9675431665
| 33> H 2.8716545953 -1.8077140504 -0.4738820149
| 34> H 3.556701698 2.2350411403 0.7289889393
| 35> H 1.1360473896 2.7138073372 0.5490315177
| 36> H -1.132664609 1.9425805837 0.0556725824
| 37> H 4.9319203988 -1.9574756587 0.6848559239
| 38> H 6.3782455087 -1.0407480931 0.1873240375
| 39> H 5.1499862051 -1.4857147457 -1.0264122245
| 40> H -3.9346089755 0.1858323128 2.442044494
| 41> *
| 42>
| 43>                          ****END OF INPUT****

CARTESIAN COORDINATES (ANGSTROEM)
---------------------------------
  C     -3.542777    1.616570   -0.984080
  C     -3.123820    0.176676   -0.702293
  H     -3.501090   -0.484562   -1.488147
  C     -1.625266   -0.034207   -0.584881
  C     -1.111519   -1.316763   -0.861446
  C      0.224338   -1.579182   -0.752135
  C      1.128959   -0.570775   -0.359204
  C      2.513281   -0.816040   -0.247015
  C      3.365860    0.187512    0.139951
  C      2.853479    1.474365    0.428900
  C      1.519805    1.729577    0.327339
  C      0.616184    0.718498   -0.069413
  C     -0.767510    0.956216   -0.181503
  O      4.716918    0.067155    0.281107
  C      5.314822   -1.185852    0.011788
  C     -3.673325   -0.339488    0.612567
  O     -4.074452   -1.473741    0.776768
  O     -3.623121    0.546377    1.589533
  H     -4.607999    1.652436   -1.198455
  H     -3.345128    2.253977   -0.127960
  H     -2.998575    1.992547   -1.845827
  H     -1.797041   -2.098689   -1.155364
  H      0.604304   -2.567072   -0.967543
  H      2.871655   -1.807714   -0.473882
  H      3.556702    2.235041    0.728989
  H      1.136047    2.713807    0.549032
  H     -1.132665    1.942581    0.055673
  H      4.931920   -1.957476    0.684856
  H      6.378246   -1.040748    0.187324
  H      5.149986   -1.485715   -1.026412
  H     -3.934609    0.185832    2.442044

 Total Charge           Charge          ....    0
 Multiplicity           Mult            ....    1
 Number of Electrons    NEL             ....  122
 Basis Dimension        Dim             ....  408

ORBITAL ENERGIES
----------------

  NO   OCC          E(Eh)            E(eV)
   0   2.0000     -19.003949      -517.1237
   1   2.0000     -18.990545      -516.7590
   2   2.0000     -18.945376      -515.5299
   3   2.0000     -10.170183      -276.7448
   4   2.0000     -10.099235      -274.8142
   5   2.0000     -10.073288      -274.1081
   6   2.0000     -10.055895      -273.6348
   7   2.0000     -10.048865      -273.4435
   8   2.0000     -10.048702      -273.4391
   9   2.0000     -10.044668      -273.3293
  10   2.0000     -10.039580      -273.1909
  11   2.0000     -10.036800      -273.1152
  12   2.0000     -10.035092      -273.0687
  13   2.0000     -10.035066      -273.0680
  14   2.0000     -10.034468      -273.0517
  15   2.0000     -10.031960      -272.9835
  16   2.0000     -10.020278      -272.6656
  17   2.0000      -1.082179       -29.4476
  18   2.0000      -1.036998       -28.2182
  19   2.0000      -0.988122       -26.8882
  20   2.0000      -0.851312       -23.1654
  21   2.0000      -0.808430       -21.9985
  22   2.0000      -0.767020       -20.8717
  23   2.0000      -0.743166       -20.2226
  24   2.0000      -0.715388       -19.4667
  25   2.0000      -0.690475       -18.7888
  26   2.0000      -0.664163       -18.0728
  27   2.0000      -0.636727       -17.3262
  28   2.0000      -0.600315       -16.3354
  29   2.0000      -0.589231       -16.0338
  30   2.0000      -0.568165       -15.4606
  31   2.0000      -0.551888       -15.0176
  32   2.0000      -0.499712       -13.5978
  33   2.0000      -0.486414       -13.2360
  34   2.0000      -0.483096       -13.1457
  35   2.0000      -0.461956       -12.5705
  36   2.0000      -0.452493       -12.3129
  37   2.0000      -0.437696       -11.9103
  38   2.0000      -0.433990       -11.8095
  39   2.0000      -0.432817       -11.7775
  40   2.0000      -0.415437       -11.3046
  41   2.0000      -0.408837       -11.1250
  42   2.0000      -0.396491       -10.7891
  43   2.0000      -0.389863       -10.6087
  44   2.0000      -0.380666       -10.3585
  45   2.0000      -0.375593       -10.2204
  46   2.0000      -0.370961       -10.0944
  47   2.0000      -0.355752        -9.6805
  48   2.0000      -0.348038        -9.4706
  49   2.0000      -0.340743        -9.2721
  50   2.0000      -0.330443        -8.9918
  51   2.0000      -0.326474        -8.8838
  52   2.0000      -0.315475        -8.5845
  53   2.0000      -0.306435        -8.3385
  54   2.0000      -0.300333        -8.1725
  55   2.0000      -0.293814        -7.9951
  56   2.0000      -0.283006        -7.7010
  57   2.0000      -0.268467        -7.3054
  58   2.0000      -0.248383        -6.7588
  59   2.0000      -0.221254        -6.0206
  60   2.0000      -0.196223        -5.3395
  61   0.0000      -0.067027        -1.8239
  62   0.0000      -0.044984        -1.2241
  63   0.0000      -0.013162        -0.3582
  64   0.0000      -0.004723        -0.1285
  65   0.0000       0.062745         1.7074

MULLIKEN ATOMIC CHARGES
-----------------------
   0 C :   -0.558577
   1 C :   -0.067170
   2 H :    0.209723
   3 C :    0.160097
   4 C :   -0.267418
   5 C :   -0.326935
   6 C :    0.169863
   7 C :   -0.341373
   8 C :    0.350107
   9 C :   -0.348724
  10 C :   -0.292228
  11 C :    0.094221
  12 C :   -0.240602
  13 O :   -0.219973
  14 C :   -0.339561
  15 C :    0.322512
  16 O :   -0.470370
  17 O :   -0.357152
  18 H :    0.177843
  19 H :    0.176668
  20 H :    0.182595
  21 H :    0.181465
  22 H :    0.174526
  23 H :    0.184453
  24 H :    0.185702
  25 H :    0.180549
  26 H :    0.179850
  27 H :    0.172279
  28 H :    0.174701
  29 H :    0.171984
  30 H :    0.380946
Sum of atomic charges:   -0.0000000

LOEWDIN ATOMIC CHARGES
----------------------
   0 C :   -0.382845
   1 C :   -0.140686
   2 H :    0.196955
   3 C :   -0.084987
   4 C :   -0.151162
   5 C :   -0.151753
   6 C :   -0.060362
   7 C :   -0.161299
   8 C :    0.180400
   9 C :   -0.131135
  10 C :   -0.138100
  11 C :   -0.077832
  12 C :   -0.130266
  13 O :   -0.705971
  14 C :   -0.050103
  15 C :    0.362979
  16 O :   -0.480260
  17 O :   -0.389855
  18 H :    0.167096
  19 H :    0.172289
  20 H :    0.167045
  21 H :    0.185267
  22 H :    0.183416
  23 H :    0.193784
  24 H :    0.191297
  25 H :    0.185546
  26 H :    0.189454
  27 H :    0.175330
  28 H :    0.187634
  29 H :    0.175247
  30 H :    0.322879

  Mayer bond orders larger than 0.100000
B(  0-C ,  1-C ) :   0.8418 B(  0-C , 18-H ) :   0.9662 B(  0-C , 19-H ) :   0.9606
B(  0-C , 20-H ) :   0.9833 B(  1-C ,  2-H ) :   0.9837 B(  1-C ,  3-C ) :   0.7873
B(  1-C , 15-C ) :   0.9814 B(  3-C ,  4-C ) :   1.2303 B(  3-C , 12-C ) :   1.4627
B(  4-C ,  5-C ) :   1.4501 B(  4-C , 21-H ) :   0.9567 B(  5-C ,  6-C ) :   1.1965
B(  5-C , 22-H ) :   0.9731 B(  6-C ,  7-C ) :   1.2015 B(  6-C , 11-C ) :   1.4282
B(  7-C ,  8-C ) :   1.4148 B(  7-C , 23-H ) :   0.9097 B(  8-C ,  9-C ) :   1.2190
B(  8-C , 13-O ) :   1.0498 B(  9-C , 10-C ) :   1.4432 B(  9-C , 24-H ) :   0.9554
B( 10-C , 11-C ) :   1.2063 B( 10-C , 25-H ) :   0.9590 B( 11-C , 12-C ) :   1.2418
B( 12-C , 26-H ) :   0.9435 B( 13-O , 14-C ) :   0.8496 B( 14-C , 27-H ) :   0.9549
B( 14-C , 28-H ) :   0.9603 B( 14-C , 29-H ) :   0.9549 B( 15-C , 16-O ) :   1.8566
B( 15-C , 17-O ) :   1.0770 B( 17-O , 30-H ) :   0.8343

Dispersion correction           -0.013108492
FINAL SINGLE POINT ENERGY      -767.461797183826

DIPOLE MOMENT
-------------

Method             : SCF
Type of density    : Electron Density
Multiplicity       :   1
Irrep              :   0
Energy             :  -767.4623605899087124 Eh
Relativity type    :
Basis              : AO
                                X                 Y                 Z
Electronic contribution:     -2.411525574      -0.971907421       3.347744952
Nuclear contribution   :      3.062839620       1.426642992      -3.371667769
                        -----------------------------------------
Total Dipole Moment    :      0.651314047       0.454735571      -0.023922817
                        -----------------------------------------
Magnitude (a.u.)       :      0.794711727
Magnitude (Debye)      :      2.019996678

Rotational constants in cm-1:             0.042312             0.007274             0.006778
Rotational constants in MHz :          1268.468159           218.068706           203.212102

                             ****ORCA TERMINATED NORMALLY****
TOTAL RUN TIME: 0 days 0 hours 1 minutes 47 seconds 906 msec
