                         Program Version 6.0.0  -   RELEASE  -
|  1> ! pbe def2-sv(p) def2/J RI DEFGRID1 loosescf d4 GCP(DFT/SV(P)) printgap
|  2> %output
|  3>     printlevel normal
|  4> end
|  5> * xyz 0 1
|  6> C -4.6000483547 -1.1708629879 0.0925148551
|  7> C -3.814890273 -2.3038641002 -0.0706997397
|  8> C -2.4407345316 -2.1862537428 -0.1666264063
|  9> C -1.8260497852 -0.9374815355 -0.099673913
| 10> C -2.6192397526 0.2031361068 0.0669233706
| 11> C -4.0039628907 0.0740395596 0.1606481097
| 12> C -2.0088679065 1.5355839185 0.1436704234
| 13> O -2.6916428488 2.5480324337 0.2864320717
| 14> C -0.5398286764 1.6015172607 0.0450264302
| 15> C 0.0339371948 2.8574288884 0.1373729902
| 16> C 1.4151517825 3.0079406589 0.0473815032
| 17> C 2.2167424819 1.9130771877 -0.1297286283
| 18> C 1.6795196097 0.6052817328 -0.2198533186
| 19> C 0.2591903278 0.4469259788 -0.1335668787
| 20> C -0.356218952 -0.8601495688 -0.2161837079
| 21> O 0.2857879103 -1.9140574232 -0.3783285819
| 22> N 2.4624212046 -0.4636654214 -0.4077772719
| 23> C 3.8970832208 -0.5528474569 -0.3892915577
| 24> C 4.341258472 -1.6630137328 0.5812121268
| 25> O 5.7218017941 -1.9201534403 0.5015975189
| 26> H -5.6724325539 -1.2598093361 0.1661380018
| 27> H -4.2750786761 -3.2780276572 -0.1238269311
| 28> H -1.8131198982 -3.0555982872 -0.2955658926
| 29> H -4.5894103888 0.9727296042 0.2870902938
| 30> H -0.6148726202 3.7087019772 0.2740972107
| 31> H 1.850424346 3.9927587933 0.1110209271
| 32> H 3.2804682402 2.0541990868 -0.2180588014
| 33> H 1.9634863938 -1.3493408398 -0.4878740319
| 34> H 4.3414466951 0.3930883625 -0.0816446049
| 35> H 4.2659655194 -0.8050713088 -1.390199785
| 36> H 3.8497606297 -2.6016113361 0.3131845228
| 37> H 4.0488260551 -1.4000673856 1.6058002954
| 38> H 6.2149953602 -1.1434244566 0.8010406079
| 39> *
| 40>
| 41>                          ****END OF INPUT****

CARTESIAN COORDINATES (ANGSTROEM)
---------------------------------
  C     -4.600048   -1.170863    0.092515
  C     -3.814890   -2.303864   -0.070700
  C     -2.440735   -2.186254   -0.166626
  C     -1.826050   -0.937482   -0.099674
  C     -2.619240    0.203136    0.066923
  C     -4.003963    0.074040    0.160648
  C     -2.008868    1.535584    0.143670
  O     -2.691643    2.548032    0.286432
  C     -0.539829    1.601517    0.045026
  C      0.033937    2.857429    0.137373
  C      1.415152    3.007941    0.047382
  C      2.216742    1.913077   -0.129729
  C      1.679520    0.605282   -0.219853
  C      0.259190    0.446926   -0.133567
  C     -0.356219   -0.860150   -0.216184
  O      0.285788   -1.914057   -0.378329
  N      2.462421   -0.463665   -0.407777
  C      3.897083   -0.552847   -0.389292
  C      4.341258   -1.663014    0.581212
  O      5.721802   -1.920153    0.501598
  H     -5.672433   -1.259809    0.166138
  H     -4.275079   -3.278028   -0.123827
  H     -1.813120   -3.055598   -0.295566
  H     -4.589410    0.972730    0.287090
  H     -0.614873    3.708702    0.274097
  H      1.850424    3.992759    0.111021
  H      3.280468    2.054199   -0.218059
  H      1.963486   -1.349341   -0.487874
  H      4.341447    0.393088   -0.081645
  H      4.265966   -0.805071   -1.390200
  H      3.849761   -2.601611    0.313185
  H      4.048826   -1.400067    1.605800
  H      6.214995   -1.143424    0.801041

 Total Charge           Charge          ....    0
 Multiplicity           Mult            ....    1
 Number of Electrons    NEL             ....  140
 Basis Dimension        Dim             ....  306

ORBITAL ENERGIES
----------------

  NO   OCC          E(Eh)            E(eV)
   0   2.0000     -18.760378      -510.4958
   1   2.0000     -18.749122      -510.1896
   2   2.0000     -18.742311      -510.0042
   3   2.0000     -14.021540      -381.5455
   4   2.0000      -9.977772      -271.5090
   5   2.0000      -9.973857      -271.4025
   6   2.0000      -9.961806      -271.0745
   7   2.0000      -9.947601      -270.6880
   8   2.0000      -9.938760      -270.4474
   9   2.0000      -9.913375      -269.7566
  10   2.0000      -9.912295      -269.7273
  11   2.0000      -9.912135      -269.7229
  12   2.0000      -9.910919      -269.6898
  13   2.0000      -9.910224      -269.6709
  14   2.0000      -9.908467      -269.6231
  15   2.0000      -9.908046      -269.6116
  16   2.0000      -9.907745      -269.6035
  17   2.0000      -9.904645      -269.5191
  18   2.0000      -9.903834      -269.4970
  19   2.0000      -9.895093      -269.2592
  20   2.0000      -0.941345       -25.6153
  21   2.0000      -0.937095       -25.4996
  22   2.0000      -0.934928       -25.4407
  23   2.0000      -0.875523       -23.8242
  24   2.0000      -0.796915       -21.6852
  25   2.0000      -0.782720       -21.2989
  26   2.0000      -0.725486       -19.7415
  27   2.0000      -0.706674       -19.2296
  28   2.0000      -0.687756       -18.7148
  29   2.0000      -0.684154       -18.6168
  30   2.0000      -0.653155       -17.7733
  31   2.0000      -0.609430       -16.5834
  32   2.0000      -0.597855       -16.2685
  33   2.0000      -0.584738       -15.9115
  34   2.0000      -0.569475       -15.4962
  35   2.0000      -0.540657       -14.7120
  36   2.0000      -0.524212       -14.2645
  37   2.0000      -0.497922       -13.5491
  38   2.0000      -0.491886       -13.3849
  39   2.0000      -0.477135       -12.9835
  40   2.0000      -0.468279       -12.7425
  41   2.0000      -0.447115       -12.1666
  42   2.0000      -0.435891       -11.8612
  43   2.0000      -0.427092       -11.6218
  44   2.0000      -0.422077       -11.4853
  45   2.0000      -0.413390       -11.2489
  46   2.0000      -0.404336       -11.0025
  47   2.0000      -0.401007       -10.9120
  48   2.0000      -0.388043       -10.5592
  49   2.0000      -0.386151       -10.5077
  50   2.0000      -0.383787       -10.4434
  51   2.0000      -0.375917       -10.2292
  52   2.0000      -0.368777       -10.0349
  53   2.0000      -0.361223        -9.8294
  54   2.0000      -0.357209        -9.7202
  55   2.0000      -0.347931        -9.4677
  56   2.0000      -0.338512        -9.2114
  57   2.0000      -0.330925        -9.0049
  58   2.0000      -0.322090        -8.7645
  59   2.0000      -0.316856        -8.6221
  60   2.0000      -0.308148        -8.3851
  61   2.0000      -0.292430        -7.9574
  62   2.0000      -0.282801        -7.6954
  63   2.0000      -0.249575        -6.7913
  64   2.0000      -0.242394        -6.5959
  65   2.0000      -0.240632        -6.5479
  66   2.0000      -0.234835        -6.3902
  67   2.0000      -0.218270        -5.9394
  68   2.0000      -0.205400        -5.5892
  69   2.0000      -0.188160        -5.1201
  70   0.0000      -0.126126        -3.4321
  71   0.0000      -0.078493        -2.1359
  72   0.0000      -0.051825        -1.4102
  73   0.0000      -0.031197        -0.8489
  74   0.0000       0.010049         0.2735

MULLIKEN ATOMIC CHARGES
-----------------------
   0 C :   -0.021389
   1 C :   -0.016619
   2 C :   -0.133361
   3 C :    0.052119
   4 C :    0.037503
   5 C :   -0.125616
   6 C :    0.086371
   7 O :   -0.150796
   8 C :    0.019466
   9 C :   -0.140847
  10 C :   -0.009216
  11 C :   -0.173907
  12 C :    0.096715
  13 C :    0.047184
  14 C :    0.072869
  15 O :   -0.221633
  16 N :   -0.245284
  17 C :   -0.066064
  18 C :   -0.026799
  19 O :   -0.425832
  20 H :    0.062629
  21 H :    0.062364
  22 H :    0.059301
  23 H :    0.058243
  24 H :    0.055758
  25 H :    0.058849
  26 H :    0.037738
  27 H :    0.250265
  28 H :    0.096340
  29 H :    0.107362
  30 H :    0.107286
  31 H :    0.089678
  32 H :    0.299322
Sum of atomic charges:   -0.0000000

LOEWDIN ATOMIC CHARGES
----------------------
   0 C :   -0.107809
   1 C :   -0.104933
   2 C :   -0.088532
   3 C :   -0.044437
   4 C :   -0.053571
   5 C :   -0.082936
   6 C :    0.058627
   7 O :   -0.131369
   8 C :   -0.044136
   9 C :   -0.112188
  10 C :   -0.096715
  11 C :   -0.148189
  12 C :    0.034913
  13 C :   -0.091656
  14 C :    0.056998
  15 O :   -0.179508
  16 N :   -0.126732
  17 C :   -0.177583
  18 C :   -0.132343
  19 O :   -0.331762
  20 H :    0.128771
  21 H :    0.128690
  22 H :    0.135166
  23 H :    0.135862
  24 H :    0.135058
  25 H :    0.129510
  26 H :    0.126224
  27 H :    0.242400
  28 H :    0.114124
  29 H :    0.121621
  30 H :    0.119456
  31 H :    0.101782
  32 H :    0.285195

  Mayer bond orders larger than 0.100000
B(  0-C ,  1-C ) :   1.3271 B(  0-C ,  5-C ) :   1.3365 B(  0-C , 20-H ) :   0.9669
B(  1-C ,  2-C ) :   1.3361 B(  1-C , 21-H ) :   0.9665 B(  2-C ,  3-C ) :   1.3811
B(  2-C , 22-H ) :   0.9541 B(  3-C ,  4-C ) :   1.3351 B(  3-C , 14-C ) :   0.9823
B(  4-C ,  5-C ) :   1.3782 B(  4-C ,  6-C ) :   0.9569 B(  5-C , 23-H ) :   0.9570
B(  6-C ,  7-O ) :   2.1552 B(  6-C ,  8-C ) :   0.9495 B(  8-C ,  9-C ) :   1.4304
B(  8-C , 13-C ) :   1.3022 B(  9-C , 10-C ) :   1.2310 B(  9-C , 24-H ) :   0.9562
B( 10-C , 11-C ) :   1.4045 B( 10-C , 25-H ) :   0.9645 B( 11-C , 12-C ) :   1.2289
B( 11-C , 26-H ) :   0.9555 B( 12-C , 13-C ) :   1.2072 B( 12-C , 16-N ) :   1.3888
B( 13-C , 14-C ) :   1.0286 B( 14-C , 15-O ) :   1.9518 B( 15-O , 27-H ) :   0.1505
B( 16-N , 17-C ) :   0.9923 B( 16-N , 27-H ) :   0.7554 B( 17-C , 18-C ) :   1.0783
B( 17-C , 28-H ) :   0.9082 B( 17-C , 29-H ) :   0.9124 B( 18-C , 19-O ) :   1.0758
B( 18-C , 30-H ) :   0.9268 B( 18-C , 31-H ) :   0.9271 B( 19-O , 32-H ) :   0.8525

Dispersion correction           -0.045908924
FINAL SINGLE POINT ENERGY      -896.120050714107

DIPOLE MOMENT
-------------

Method             : SCF
Type of density    : Electron Density
Multiplicity       :   1
Irrep              :   0
Energy             :  -896.2173619181928643 Eh
Relativity type    :
Basis              : AO
                                X                 Y                 Z
Electronic contribution:    -11.200241293       3.582423355      -0.745113178
Nuclear contribution   :     12.118565942      -3.559881660       0.905599283
                        -----------------------------------------
Total Dipole Moment    :      0.918324649       0.022541695       0.160486106
                        -----------------------------------------
Magnitude (a.u.)       :      0.932514922
Magnitude (Debye)      :      2.370264563

Rotational constants in cm-1:             0.020464             0.007161             0.005387
Rotational constants in MHz :           613.508660           214.693895           161.511134

                             ****ORCA TERMINATED NORMALLY****
TOTAL RUN TIME: 0 days 0 hours 0 minutes 31 seconds 819 msec
