                         Program Version 6.0.0  -   RELEASE  -
|  1> ! pbe def2-sv(p) def2/J RI DEFGRID1 loosescf d4 GCP(DFT/SV(P)) printgap
|  2> %output
|  3>     printlevel normal
|  4> end
|  5> * xyz 0 1
|  6> C -4.6501069499 -0.9545463644 0.186555533
|  7> C -3.9746330129 -2.159215479 0.0474813324
|  8> C -2.5973986489 -2.1709766152 -0.0719158767
|  9> C -1.8708993426 -0.9820139753 -0.0568722386
| 10> C -2.5536039527 0.2314318871 0.0833362457
| 11> C -3.9421122217 0.2321182321 0.2051035372
| 12> C -1.8238249727 1.5050317754 0.1058930916
| 13> O -2.4083930924 2.578058899 0.2439980823
| 14> C -0.360468899 1.4361254999 -0.0499094347
| 15> C 0.3255192208 2.6381358263 -0.0471630134
| 16> C 1.7117703038 2.6586566077 -0.1790329466
| 17> C 2.4067355863 1.489040958 -0.3277578385
| 18> C 1.7471303694 0.2352113232 -0.3588762193
| 19> C 0.3258492211 0.2071323704 -0.1991500458
| 20> C -0.4017709936 -1.0430551916 -0.1869344647
| 21> O 0.1464615064 -2.156619999 -0.2770169472
| 22> N 2.4311725672 -0.9032956415 -0.5345966469
| 23> C 3.8446534867 -1.0480668158 -0.7719358511
| 24> C 4.6510075458 -1.2555494956 0.5249435257
| 25> O 4.716276049 -0.1020950071 1.3329291346
| 26> H -5.7245500509 -0.94256603 0.2802669113
| 27> H -4.5227165839 -3.0881852716 0.032456292
| 28> H -2.0538414914 -3.097899264 -0.1800014144
| 29> H -4.4409446191 1.1839389339 0.3130089289
| 30> H -0.2396827267 3.5500679783 0.0687234511
| 31> H 2.2373123764 3.6002257447 -0.1567768906
| 32> H 3.4813588249 1.5202186601 -0.3982990364
| 33> H 1.8729463968 -1.7536813399 -0.4872420849
| 34> H 4.2341817567 -0.1774968352 -1.3012719422
| 35> H 3.9885633817 -1.9290516528 -1.3988632612
| 36> H 5.6847611601 -1.486278134 0.260238204
| 37> H 4.2328177015 -2.0988206114 1.0862741768
| 38> H 3.8540990719 0.0545211721 1.7396323486
| 39> *
| 40>
| 41>                          ****END OF INPUT****

CARTESIAN COORDINATES (ANGSTROEM)
---------------------------------
  C     -4.650107   -0.954546    0.186556
  C     -3.974633   -2.159215    0.047481
  C     -2.597399   -2.170977   -0.071916
  C     -1.870899   -0.982014   -0.056872
  C     -2.553604    0.231432    0.083336
  C     -3.942112    0.232118    0.205104
  C     -1.823825    1.505032    0.105893
  O     -2.408393    2.578059    0.243998
  C     -0.360469    1.436125   -0.049909
  C      0.325519    2.638136   -0.047163
  C      1.711770    2.658657   -0.179033
  C      2.406736    1.489041   -0.327758
  C      1.747130    0.235211   -0.358876
  C      0.325849    0.207132   -0.199150
  C     -0.401771   -1.043055   -0.186934
  O      0.146462   -2.156620   -0.277017
  N      2.431173   -0.903296   -0.534597
  C      3.844653   -1.048067   -0.771936
  C      4.651008   -1.255549    0.524944
  O      4.716276   -0.102095    1.332929
  H     -5.724550   -0.942566    0.280267
  H     -4.522717   -3.088185    0.032456
  H     -2.053841   -3.097899   -0.180001
  H     -4.440945    1.183939    0.313009
  H     -0.239683    3.550068    0.068723
  H      2.237312    3.600226   -0.156777
  H      3.481359    1.520219   -0.398299
  H      1.872946   -1.753681   -0.487242
  H      4.234182   -0.177497   -1.301272
  H      3.988563   -1.929052   -1.398863
  H      5.684761   -1.486278    0.260238
  H      4.232818   -2.098821    1.086274
  H      3.854099    0.054521    1.739632

 Total Charge           Charge          ....    0
 Multiplicity           Mult            ....    1
 Number of Electrons    NEL             ....  140
 Basis Dimension        Dim             ....  306

ORBITAL ENERGIES
----------------

  NO   OCC          E(Eh)            E(eV)
   0   2.0000     -18.760034      -510.4865
   1   2.0000     -18.750023      -510.2141
   2   2.0000     -18.742873      -510.0195
   3   2.0000     -14.022786      -381.5794
   4   2.0000      -9.978695      -271.5341
   5   2.0000      -9.974526      -271.4207
   6   2.0000      -9.962185      -271.0848
   7   2.0000      -9.946868      -270.6680
   8   2.0000      -9.938181      -270.4317
   9   2.0000      -9.914358      -269.7834
  10   2.0000      -9.913146      -269.7504
  11   2.0000      -9.912906      -269.7439
  12   2.0000      -9.911876      -269.7158
  13   2.0000      -9.909799      -269.6593
  14   2.0000      -9.909446      -269.6497
  15   2.0000      -9.908668      -269.6286
  16   2.0000      -9.906096      -269.5586
  17   2.0000      -9.905500      -269.5424
  18   2.0000      -9.904932      -269.5269
  19   2.0000      -9.895917      -269.2816
  20   2.0000      -0.942297       -25.6412
  21   2.0000      -0.936385       -25.4803
  22   2.0000      -0.935373       -25.4528
  23   2.0000      -0.875079       -23.8121
  24   2.0000      -0.797779       -21.7087
  25   2.0000      -0.782979       -21.3059
  26   2.0000      -0.725975       -19.7548
  27   2.0000      -0.705910       -19.2088
  28   2.0000      -0.688717       -18.7409
  29   2.0000      -0.684514       -18.6266
  30   2.0000      -0.656967       -17.8770
  31   2.0000      -0.609914       -16.5966
  32   2.0000      -0.599483       -16.3128
  33   2.0000      -0.582810       -15.8591
  34   2.0000      -0.571094       -15.5403
  35   2.0000      -0.538440       -14.6517
  36   2.0000      -0.525293       -14.2940
  37   2.0000      -0.497913       -13.5489
  38   2.0000      -0.490859       -13.3569
  39   2.0000      -0.479820       -13.0566
  40   2.0000      -0.467177       -12.7125
  41   2.0000      -0.445717       -12.1286
  42   2.0000      -0.436225       -11.8703
  43   2.0000      -0.428680       -11.6650
  44   2.0000      -0.420400       -11.4397
  45   2.0000      -0.419218       -11.4075
  46   2.0000      -0.410168       -11.1612
  47   2.0000      -0.399386       -10.8679
  48   2.0000      -0.388952       -10.5839
  49   2.0000      -0.384532       -10.4636
  50   2.0000      -0.380303       -10.3486
  51   2.0000      -0.372350       -10.1321
  52   2.0000      -0.365907        -9.9568
  53   2.0000      -0.361983        -9.8501
  54   2.0000      -0.357738        -9.7345
  55   2.0000      -0.350542        -9.5387
  56   2.0000      -0.339037        -9.2257
  57   2.0000      -0.331804        -9.0288
  58   2.0000      -0.323524        -8.8035
  59   2.0000      -0.317497        -8.6395
  60   2.0000      -0.309170        -8.4129
  61   2.0000      -0.297203        -8.0873
  62   2.0000      -0.284824        -7.7505
  63   2.0000      -0.250396        -6.8136
  64   2.0000      -0.243391        -6.6230
  65   2.0000      -0.241633        -6.5752
  66   2.0000      -0.236192        -6.4271
  67   2.0000      -0.219159        -5.9636
  68   2.0000      -0.206093        -5.6081
  69   2.0000      -0.188041        -5.1169
  70   0.0000      -0.126948        -3.4544
  71   0.0000      -0.079677        -2.1681
  72   0.0000      -0.052777        -1.4361
  73   0.0000      -0.032626        -0.8878
  74   0.0000       0.014363         0.3908

MULLIKEN ATOMIC CHARGES
-----------------------
   0 C :   -0.020788
   1 C :   -0.016635
   2 C :   -0.133768
   3 C :    0.051447
   4 C :    0.038022
   5 C :   -0.125688
   6 C :    0.085018
   7 O :   -0.150502
   8 C :    0.017034
   9 C :   -0.137437
  10 C :   -0.008657
  11 C :   -0.176337
  12 C :    0.053828
  13 C :    0.053613
  14 C :    0.071334
  15 O :   -0.221955
  16 N :   -0.231989
  17 C :   -0.076017
  18 C :    0.000370
  19 O :   -0.429832
  20 H :    0.062849
  21 H :    0.062371
  22 H :    0.058497
  23 H :    0.058604
  24 H :    0.055867
  25 H :    0.061491
  26 H :    0.046341
  27 H :    0.244936
  28 H :    0.117157
  29 H :    0.098888
  30 H :    0.095633
  31 H :    0.083431
  32 H :    0.312873
Sum of atomic charges:    0.0000000

LOEWDIN ATOMIC CHARGES
----------------------
   0 C :   -0.107523
   1 C :   -0.105032
   2 C :   -0.088700
   3 C :   -0.044933
   4 C :   -0.053389
   5 C :   -0.082853
   6 C :    0.058137
   7 O :   -0.131370
   8 C :   -0.045202
   9 C :   -0.110818
  10 C :   -0.097394
  11 C :   -0.152849
  12 C :    0.026331
  13 C :   -0.093521
  14 C :    0.055999
  15 O :   -0.180392
  16 N :   -0.131116
  17 C :   -0.179226
  18 C :   -0.130618
  19 O :   -0.332934
  20 H :    0.128904
  21 H :    0.128686
  22 H :    0.134853
  23 H :    0.136038
  24 H :    0.135215
  25 H :    0.130850
  26 H :    0.128901
  27 H :    0.242564
  28 H :    0.125901
  29 H :    0.127621
  30 H :    0.117505
  31 H :    0.101838
  32 H :    0.288526

  Mayer bond orders larger than 0.100000
B(  0-C ,  1-C ) :   1.3269 B(  0-C ,  5-C ) :   1.3365 B(  0-C , 20-H ) :   0.9668
B(  1-C ,  2-C ) :   1.3360 B(  1-C , 21-H ) :   0.9665 B(  2-C ,  3-C ) :   1.3803
B(  2-C , 22-H ) :   0.9546 B(  3-C ,  4-C ) :   1.3349 B(  3-C , 14-C ) :   0.9803
B(  4-C ,  5-C ) :   1.3781 B(  4-C ,  6-C ) :   0.9568 B(  5-C , 23-H ) :   0.9569
B(  6-C ,  7-O ) :   2.1552 B(  6-C ,  8-C ) :   0.9494 B(  8-C ,  9-C ) :   1.4302
B(  8-C , 13-C ) :   1.2982 B(  9-C , 10-C ) :   1.2264 B(  9-C , 24-H ) :   0.9570
B( 10-C , 11-C ) :   1.3859 B( 10-C , 25-H ) :   0.9664 B( 11-C , 12-C ) :   1.2442
B( 11-C , 26-H ) :   0.9457 B( 12-C , 13-C ) :   1.2125 B( 12-C , 16-N ) :   1.3844
B( 13-C , 14-C ) :   1.0270 B( 14-C , 15-O ) :   1.9572 B( 15-O , 27-H ) :   0.1462
B( 16-N , 17-C ) :   1.0281 B( 16-N , 27-H ) :   0.7634 B( 17-C , 18-C ) :   1.0804
B( 17-C , 28-H ) :   0.9035 B( 17-C , 29-H ) :   0.9132 B( 18-C , 19-O ) :   1.0945
B( 18-C , 30-H ) :   0.9247 B( 18-C , 31-H ) :   0.9244 B( 19-O , 32-H ) :   0.8365

Dispersion correction           -0.046934161
FINAL SINGLE POINT ENERGY      -896.125651263988

DIPOLE MOMENT
-------------

Method             : SCF
Type of density    : Electron Density
Multiplicity       :   1
Irrep              :   0
Energy             :  -896.2227524008321780 Eh
Relativity type    :
Basis              : AO
                                X                 Y                 Z
Electronic contribution:    -11.351287490       3.552137603      -0.078771030
Nuclear contribution   :     11.874701352      -4.376810843      -0.116771632
                        -----------------------------------------
Total Dipole Moment    :      0.523413862      -0.824673240      -0.195542662
                        -----------------------------------------
Magnitude (a.u.)       :      0.996135009
Magnitude (Debye)      :      2.531973974

Rotational constants in cm-1:             0.022695             0.007483             0.005856
Rotational constants in MHz :           680.377970           224.320306           175.571865

                             ****ORCA TERMINATED NORMALLY****
TOTAL RUN TIME: 0 days 0 hours 0 minutes 34 seconds 528 msec
