                         Program Version 6.0.0  -   RELEASE  -
|  1> ! r2scan-3c def2/J RI DEFGRID2 scfconv6 printgap
|  2> %output
|  3>     printlevel normal
|  4> end
|  5> * xyz 0 1
|  6> C -3.0002852662 -0.9169927441 -0.2508574895
|  7> C -2.3259795303 0.4111942047 -0.5725285621
|  8> C -1.2585110537 0.7928832165 0.4593398959
|  9> C 0.0063141884 -0.0171972981 0.3287545924
| 10> O 0.0734185006 -1.205041961 0.0949982731
| 11> O 1.0768088179 0.7485291976 0.5233572166
| 12> C 2.3778702881 0.1427631945 0.4433988445
| 13> C 2.8949994082 0.1460896461 -0.9871086736
| 14> H -3.727723521 -1.1665360801 -1.018790333
| 15> H -2.2602670964 -1.7114635186 -0.202929382
| 16> H -3.5129277985 -0.8623890217 0.7067345102
| 17> H -3.0769968457 1.2022084688 -0.595177973
| 18> H -1.8659849022 0.3552941354 -1.5610436327
| 19> H -1.6512599793 0.6230374741 1.4645614928
| 20> H -0.9852362086 1.8441147494 0.3704730669
| 21> H 3.0060672383 0.7515040032 1.0943439224
| 22> H 2.3108864674 -0.8800660751 0.826590668
| 23> H 2.9043258584 1.1595652882 -1.3788412822
| 24> H 3.9025949798 -0.2559714849 -1.0066415728
| 25> H 2.2563711351 -0.4710436165 -1.6151750078
| 26> *
| 27>
| 28>                          ****END OF INPUT****

CARTESIAN COORDINATES (ANGSTROEM)
---------------------------------
  C     -3.000285   -0.916993   -0.250857
  C     -2.325980    0.411194   -0.572529
  C     -1.258511    0.792883    0.459340
  C      0.006314   -0.017197    0.328755
  O      0.073419   -1.205042    0.094998
  O      1.076809    0.748529    0.523357
  C      2.377870    0.142763    0.443399
  C      2.894999    0.146090   -0.987109
  H     -3.727724   -1.166536   -1.018790
  H     -2.260267   -1.711464   -0.202929
  H     -3.512928   -0.862389    0.706735
  H     -3.076997    1.202208   -0.595178
  H     -1.865985    0.355294   -1.561044
  H     -1.651260    0.623037    1.464561
  H     -0.985236    1.844115    0.370473
  H      3.006067    0.751504    1.094344
  H      2.310886   -0.880066    0.826591
  H      2.904326    1.159565   -1.378841
  H      3.902595   -0.255971   -1.006642
  H      2.256371   -0.471044   -1.615175

 Total Charge           Charge          ....    0
 Multiplicity           Mult            ....    1
 Number of Electrons    NEL             ....   64
 Basis Dimension        Dim             ....  222

ORBITAL ENERGIES
----------------

  NO   OCC          E(Eh)            E(eV)
   0   2.0000     -18.995884      -516.9043
   1   2.0000     -18.929149      -515.0883
   2   2.0000     -10.152965      -276.2762
   3   2.0000     -10.090485      -274.5761
   4   2.0000     -10.041477      -273.2425
   5   2.0000     -10.033057      -273.0134
   6   2.0000     -10.028798      -272.8975
   7   2.0000     -10.008487      -272.3448
   8   2.0000      -1.070975       -29.1427
   9   2.0000      -0.976623       -26.5753
  10   2.0000      -0.770413       -20.9640
  11   2.0000      -0.738925       -20.1072
  12   2.0000      -0.676063       -18.3966
  13   2.0000      -0.620604       -16.8875
  14   2.0000      -0.565040       -15.3755
  15   2.0000      -0.519436       -14.1346
  16   2.0000      -0.474480       -12.9113
  17   2.0000      -0.451597       -12.2886
  18   2.0000      -0.442785       -12.0488
  19   2.0000      -0.419183       -11.4065
  20   2.0000      -0.403455       -10.9786
  21   2.0000      -0.388284       -10.5658
  22   2.0000      -0.382002       -10.3948
  23   2.0000      -0.365925        -9.9573
  24   2.0000      -0.344847        -9.3838
  25   2.0000      -0.340446        -9.2640
  26   2.0000      -0.313656        -8.5350
  27   2.0000      -0.311367        -8.4727
  28   2.0000      -0.307297        -8.3620
  29   2.0000      -0.302231        -8.2241
  30   2.0000      -0.271880        -7.3982
  31   2.0000      -0.233901        -6.3648
  32   0.0000      -0.015036        -0.4091
  33   0.0000       0.077969         2.1217
  34   0.0000       0.090524         2.4633
  35   0.0000       0.109871         2.9897
  36   0.0000       0.121808         3.3146

MULLIKEN ATOMIC CHARGES
-----------------------
   0 C :   -0.517524
   1 C :   -0.203787
   2 C :   -0.278659
   3 C :    0.353027
   4 O :   -0.436752
   5 O :   -0.178347
   6 C :   -0.140159
   7 C :   -0.467801
   8 H :    0.141342
   9 H :    0.191754
  10 H :    0.136700
  11 H :    0.146555
  12 H :    0.136074
  13 H :    0.165219
  14 H :    0.168079
  15 H :    0.147706
  16 H :    0.167661
  17 H :    0.151565
  18 H :    0.146681
  19 H :    0.170667
Sum of atomic charges:    0.0000000

LOEWDIN ATOMIC CHARGES
----------------------
   0 C :   -0.422417
   1 C :   -0.294361
   2 C :   -0.232067
   3 C :    0.364582
   4 O :   -0.443838
   5 O :   -0.599547
   6 C :    0.026546
   7 C :   -0.390194
   8 H :    0.149101
   9 H :    0.173339
  10 H :    0.147448
  11 H :    0.153030
  12 H :    0.158775
  13 H :    0.182750
  14 H :    0.180568
  15 H :    0.177456
  16 H :    0.188268
  17 H :    0.156966
  18 H :    0.159025
  19 H :    0.164568

  Mayer bond orders larger than 0.100000
B(  0-C ,  1-C ) :   0.9039 B(  0-C ,  8-H ) :   0.9705 B(  0-C ,  9-H ) :   0.9724
B(  0-C , 10-H ) :   0.9811 B(  1-C ,  2-C ) :   0.8795 B(  1-C , 11-H ) :   0.9714
B(  1-C , 12-H ) :   0.9754 B(  2-C ,  3-C ) :   0.9703 B(  2-C , 13-H ) :   0.9413
B(  2-C , 14-H ) :   0.9644 B(  3-C ,  4-O ) :   1.8418 B(  3-C ,  5-O ) :   1.0749
B(  5-O ,  6-C ) :   0.8170 B(  6-C ,  7-C ) :   0.9398 B(  6-C , 15-H ) :   0.9606
B(  6-C , 16-H ) :   0.9660 B(  7-C , 17-H ) :   0.9737 B(  7-C , 18-H ) :   0.9652
B(  7-C , 19-H ) :   0.9722

Dispersion correction           -0.005058757
FINAL SINGLE POINT ENERGY      -386.234621829455

DIPOLE MOMENT
-------------

Method             : SCF
Type of density    : Electron Density
Multiplicity       :   1
Irrep              :   0
Energy             :  -386.2414664818075494 Eh
Relativity type    :
Basis              : AO
                                X                 Y                 Z
Electronic contribution:      2.812913090       0.111077754       2.779257965
Nuclear contribution   :     -2.516135680       0.545111368      -2.726426999
                        -----------------------------------------
Total Dipole Moment    :      0.296777410       0.656189121       0.052830966
                        -----------------------------------------
Magnitude (a.u.)       :      0.722116407
Magnitude (Debye)      :      1.835474038

Rotational constants in cm-1:             0.162143             0.032870             0.031227
Rotational constants in MHz :          4860.916736           985.427816           936.147413

                             ****ORCA TERMINATED NORMALLY****
TOTAL RUN TIME: 0 days 0 hours 0 minutes 30 seconds 302 msec
