                         Program Version 6.0.0  -   RELEASE  -
|  1> ! pbe def2-sv(p) def2/J RI DEFGRID1 loosescf d4 GCP(DFT/SV(P)) printgap
|  2> %output
|  3>     printlevel normal
|  4> end
|  5> * xyz 0 1
|  6> C -3.3477957285 -0.9102462919 0.3833586428
|  7> C -2.8142043915 0.486847257 0.0858477789
|  8> C -1.4150498649 0.4741888032 -0.5281971251
|  9> C -0.351176916 -0.0607872249 0.4285609496
| 10> C 1.0430731367 0.1862663574 -0.0830151882
| 11> O 1.3599451203 1.0259074242 -0.898230262
| 12> O 1.920450928 -0.6359944461 0.48793272
| 13> C 3.295997993 -0.4921895665 0.1232681824
| 14> H -4.3764071242 -0.8524016056 0.7303780657
| 15> H -3.3231834347 -1.5242745121 -0.5138649967
| 16> H -2.7577585662 -1.3986380424 1.1537205776
| 17> H -3.4898837768 0.9828676054 -0.6134698066
| 18> H -2.8002624963 1.0751995515 1.005375816
| 19> H -1.1347874057 1.4897077752 -0.8162146683
| 20> H -1.419500928 -0.1318759719 -1.4363024852
| 21> H -0.4612398467 -1.1291264108 0.6099527788
| 22> H -0.4292850681 0.451390787 1.391361768
| 23> H 3.817338965 -1.3024509832 0.6227538044
| 24> H 3.6694549803 0.4771066903 0.4552821441
| 25> H 3.4039782737 -0.5622003747 -0.9597165708
| 26> *
| 27>
| 28>                          ****END OF INPUT****

CARTESIAN COORDINATES (ANGSTROEM)
---------------------------------
  C     -3.347796   -0.910246    0.383359
  C     -2.814204    0.486847    0.085848
  C     -1.415050    0.474189   -0.528197
  C     -0.351177   -0.060787    0.428561
  C      1.043073    0.186266   -0.083015
  O      1.359945    1.025907   -0.898230
  O      1.920451   -0.635994    0.487933
  C      3.295998   -0.492190    0.123268
  H     -4.376407   -0.852402    0.730378
  H     -3.323183   -1.524275   -0.513865
  H     -2.757759   -1.398638    1.153721
  H     -3.489884    0.982868   -0.613470
  H     -2.800262    1.075200    1.005376
  H     -1.134787    1.489708   -0.816215
  H     -1.419501   -0.131876   -1.436302
  H     -0.461240   -1.129126    0.609953
  H     -0.429285    0.451391    1.391362
  H      3.817339   -1.302451    0.622754
  H      3.669455    0.477107    0.455282
  H      3.403978   -0.562200   -0.959717

 Total Charge           Charge          ....    0
 Multiplicity           Mult            ....    1
 Number of Electrons    NEL             ....   64
 Basis Dimension        Dim             ....  136

ORBITAL ENERGIES
----------------

  NO   OCC          E(Eh)            E(eV)
   0   2.0000     -18.798257      -511.5266
   1   2.0000     -18.733388      -509.7614
   2   2.0000     -10.005097      -272.2525
   3   2.0000      -9.941326      -270.5172
   4   2.0000      -9.897747      -269.3314
   5   2.0000      -9.884865      -268.9809
   6   2.0000      -9.884393      -268.9680
   7   2.0000      -9.875442      -268.7244
   8   2.0000      -1.004457       -27.3327
   9   2.0000      -0.909306       -24.7435
  10   2.0000      -0.729530       -19.8515
  11   2.0000      -0.685365       -18.6497
  12   2.0000      -0.644241       -17.5307
  13   2.0000      -0.583583       -15.8801
  14   2.0000      -0.518647       -14.1131
  15   2.0000      -0.497262       -13.5312
  16   2.0000      -0.451385       -12.2828
  17   2.0000      -0.441117       -12.0034
  18   2.0000      -0.419456       -11.4140
  19   2.0000      -0.406348       -11.0573
  20   2.0000      -0.393827       -10.7166
  21   2.0000      -0.383435       -10.4338
  22   2.0000      -0.358090        -9.7441
  23   2.0000      -0.347158        -9.4467
  24   2.0000      -0.342200        -9.3117
  25   2.0000      -0.315373        -8.5817
  26   2.0000      -0.305605        -8.3159
  27   2.0000      -0.289223        -7.8702
  28   2.0000      -0.286688        -7.8012
  29   2.0000      -0.283988        -7.7277
  30   2.0000      -0.257857        -7.0166
  31   2.0000      -0.219175        -5.9641
  32   0.0000      -0.018977        -0.5164
  33   0.0000       0.036484         0.9928
  34   0.0000       0.057301         1.5592
  35   0.0000       0.069544         1.8924
  36   0.0000       0.071931         1.9574

MULLIKEN ATOMIC CHARGES
-----------------------
   0 C :   -0.293917
   1 C :   -0.160012
   2 C :   -0.175898
   3 C :   -0.184865
   4 C :    0.120053
   5 O :   -0.207754
   6 O :   -0.240234
   7 C :   -0.108117
   8 H :    0.103990
   9 H :    0.098527
  10 H :    0.107407
  11 H :    0.087365
  12 H :    0.081956
  13 H :    0.103719
  14 H :    0.088251
  15 H :    0.109746
  16 H :    0.111498
  17 H :    0.120631
  18 H :    0.117289
  19 H :    0.120363
Sum of atomic charges:   -0.0000000

LOEWDIN ATOMIC CHARGES
----------------------
   0 C :   -0.343909
   1 C :   -0.233230
   2 C :   -0.223960
   3 C :   -0.251317
   4 C :    0.037388
   5 O :   -0.164685
   6 O :   -0.078484
   7 C :   -0.203392
   8 H :    0.119930
   9 H :    0.117369
  10 H :    0.115678
  11 H :    0.117505
  12 H :    0.113476
  13 H :    0.124713
  14 H :    0.118198
  15 H :    0.133640
  16 H :    0.142477
  17 H :    0.120112
  18 H :    0.118647
  19 H :    0.119845

  Mayer bond orders larger than 0.100000
B(  0-C ,  1-C ) :   1.1434 B(  0-C ,  8-H ) :   0.9519 B(  0-C ,  9-H ) :   0.9554
B(  0-C , 10-H ) :   0.9530 B(  1-C ,  2-C ) :   1.1266 B(  1-C , 11-H ) :   0.9280
B(  1-C , 12-H ) :   0.9259 B(  2-C ,  3-C ) :   1.1277 B(  2-C , 13-H ) :   0.9132
B(  2-C , 14-H ) :   0.9264 B(  3-C ,  4-C ) :   1.0194 B(  3-C , 15-H ) :   0.9009
B(  3-C , 16-H ) :   0.8886 B(  4-C ,  5-O ) :   2.0537 B(  4-C ,  6-O ) :   1.2211
B(  6-O ,  7-C ) :   0.9401 B(  7-C , 17-H ) :   0.9597 B(  7-C , 18-H ) :   0.9543
B(  7-C , 19-H ) :   0.9502

Dispersion correction           -0.014773403
FINAL SINGLE POINT ENERGY      -385.453006718552

DIPOLE MOMENT
-------------

Method             : SCF
Type of density    : Electron Density
Multiplicity       :   1
Irrep              :   0
Energy             :  -385.5281393686655065 Eh
Relativity type    :
Basis              : AO
                                X                 Y                 Z
Electronic contribution:      8.793765335       1.801659420      -1.080936971
Nuclear contribution   :     -8.677749464      -2.268986870       1.522430163
                        -----------------------------------------
Total Dipole Moment    :      0.116015871      -0.467327450       0.441493193
                        -----------------------------------------
Magnitude (a.u.)       :      0.653277022
Magnitude (Debye)      :      1.660498227

Rotational constants in cm-1:             0.188277             0.027962             0.025306
Rotational constants in MHz :          5644.389084           838.277904           758.651048

                             ****ORCA TERMINATED NORMALLY****
TOTAL RUN TIME: 0 days 0 hours 0 minutes 10 seconds 613 msec
