                         Program Version 6.0.0  -   RELEASE  -
|  1> ! pbe def2-sv(p) def2/J RI DEFGRID1 loosescf d4 GCP(DFT/SV(P)) printgap
|  2> %output
|  3>     printlevel normal
|  4> end
|  5> * xyz 0 1
|  6> C -3.5211836201 -0.6818708592 0.4633467784
|  7> C -2.1647955244 0.0028989402 0.5708793259
|  8> C -1.2266523298 -0.4442848284 -0.5603906468
|  9> C 0.0948268411 0.260597559 -0.4155752576
| 10> O 0.3921959905 1.2979320513 -0.9714545826
| 11> O 0.8874117636 -0.3687031622 0.4424405604
| 12> C 2.1775050202 0.1965016382 0.7290399046
| 13> C 3.2190149822 -0.2819245168 -0.2709328389
| 14> H -4.1716422175 -0.3515243539 1.2684824089
| 15> H -3.995429848 -0.4410678612 -0.4845158089
| 16> H -3.4086447002 -1.7607905962 0.5295639503
| 17> H -1.7034417653 -0.239293837 1.5300989825
| 18> H -2.2912942352 1.0864574425 0.5197491001
| 19> H -1.6596678955 -0.1824638491 -1.5253695412
| 20> H -1.0658632393 -1.5197404717 -0.4975492264
| 21> H 2.0936274796 1.2872789951 0.7061919564
| 22> H 2.409804901 -0.1457630468 1.7380018389
| 23> H 2.9712319256 0.0777195737 -1.267181843
| 24> H 4.192790018 0.1046808033 0.0112386985
| 25> H 3.2532873883 -1.3679096866 -0.2846191177
| 26> *
| 27>
| 28>                          ****END OF INPUT****

CARTESIAN COORDINATES (ANGSTROEM)
---------------------------------
  C     -3.521184   -0.681871    0.463347
  C     -2.164796    0.002899    0.570879
  C     -1.226652   -0.444285   -0.560391
  C      0.094827    0.260598   -0.415575
  O      0.392196    1.297932   -0.971455
  O      0.887412   -0.368703    0.442441
  C      2.177505    0.196502    0.729040
  C      3.219015   -0.281925   -0.270933
  H     -4.171642   -0.351524    1.268482
  H     -3.995430   -0.441068   -0.484516
  H     -3.408645   -1.760791    0.529564
  H     -1.703442   -0.239294    1.530099
  H     -2.291294    1.086457    0.519749
  H     -1.659668   -0.182464   -1.525370
  H     -1.065863   -1.519740   -0.497549
  H      2.093627    1.287279    0.706192
  H      2.409805   -0.145763    1.738002
  H      2.971232    0.077720   -1.267182
  H      4.192790    0.104681    0.011239
  H      3.253287   -1.367910   -0.284619

 Total Charge           Charge          ....    0
 Multiplicity           Mult            ....    1
 Number of Electrons    NEL             ....   64
 Basis Dimension        Dim             ....  136

ORBITAL ENERGIES
----------------

  NO   OCC          E(Eh)            E(eV)
   0   2.0000     -18.796066      -511.4669
   1   2.0000     -18.729155      -509.6462
   2   2.0000     -10.002952      -272.1942
   3   2.0000      -9.945427      -270.6288
   4   2.0000      -9.895744      -269.2769
   5   2.0000      -9.895606      -269.2731
   6   2.0000      -9.885919      -269.0095
   7   2.0000      -9.880486      -268.8617
   8   2.0000      -1.002608       -27.2824
   9   2.0000      -0.906242       -24.6601
  10   2.0000      -0.729598       -19.8534
  11   2.0000      -0.696031       -18.9400
  12   2.0000      -0.639316       -17.3967
  13   2.0000      -0.587568       -15.9886
  14   2.0000      -0.534464       -14.5435
  15   2.0000      -0.496200       -13.5023
  16   2.0000      -0.452052       -12.3010
  17   2.0000      -0.432050       -11.7567
  18   2.0000      -0.418125       -11.3778
  19   2.0000      -0.405147       -11.0246
  20   2.0000      -0.388477       -10.5710
  21   2.0000      -0.374850       -10.2002
  22   2.0000      -0.359881        -9.7929
  23   2.0000      -0.346575        -9.4308
  24   2.0000      -0.341413        -9.2903
  25   2.0000      -0.325991        -8.8707
  26   2.0000      -0.315875        -8.5954
  27   2.0000      -0.301700        -8.2097
  28   2.0000      -0.298513        -8.1229
  29   2.0000      -0.287202        -7.8152
  30   2.0000      -0.253332        -6.8935
  31   2.0000      -0.213793        -5.8176
  32   0.0000      -0.017659        -0.4805
  33   0.0000       0.040995         1.1155
  34   0.0000       0.051905         1.4124
  35   0.0000       0.077746         2.1156
  36   0.0000       0.078470         2.1353

MULLIKEN ATOMIC CHARGES
-----------------------
   0 C :   -0.241660
   1 C :   -0.243254
   2 C :   -0.113150
   3 C :    0.113589
   4 O :   -0.213572
   5 O :   -0.243832
   6 C :   -0.010249
   7 C :   -0.303667
   8 H :    0.107077
   9 H :    0.101023
  10 H :    0.098912
  11 H :    0.098926
  12 H :    0.103141
  13 H :    0.097831
  14 H :    0.093268
  15 H :    0.106135
  16 H :    0.099584
  17 H :    0.126501
  18 H :    0.111263
  19 H :    0.112132
Sum of atomic charges:   -0.0000000

LOEWDIN ATOMIC CHARGES
----------------------
   0 C :   -0.338984
   1 C :   -0.225283
   2 C :   -0.241744
   3 C :    0.037317
   4 O :   -0.174500
   5 O :   -0.069439
   6 C :   -0.113171
   7 C :   -0.355989
   8 H :    0.121856
   9 H :    0.119237
  10 H :    0.118267
  11 H :    0.118924
  12 H :    0.122062
  13 H :    0.133007
  14 H :    0.129692
  15 H :    0.118739
  16 H :    0.116032
  17 H :    0.130463
  18 H :    0.129688
  19 H :    0.123827

  Mayer bond orders larger than 0.100000
B(  0-C ,  1-C ) :   1.1579 B(  0-C ,  8-H ) :   0.9516 B(  0-C ,  9-H ) :   0.9530
B(  0-C , 10-H ) :   0.9533 B(  1-C ,  2-C ) :   1.1280 B(  1-C , 11-H ) :   0.9268
B(  1-C , 12-H ) :   0.9267 B(  2-C ,  3-C ) :   1.0267 B(  2-C , 13-H ) :   0.9037
B(  2-C , 14-H ) :   0.8997 B(  3-C ,  4-O ) :   2.0431 B(  3-C ,  5-O ) :   1.2027
B(  5-O ,  6-C ) :   0.9226 B(  6-C ,  7-C ) :   1.1741 B(  6-C , 15-H ) :   0.9126
B(  6-C , 16-H ) :   0.9370 B(  7-C , 17-H ) :   0.9468 B(  7-C , 18-H ) :   0.9446
B(  7-C , 19-H ) :   0.9491

Dispersion correction           -0.014725231
FINAL SINGLE POINT ENERGY      -385.457650100799

DIPOLE MOMENT
-------------

Method             : SCF
Type of density    : Electron Density
Multiplicity       :   1
Irrep              :   0
Energy             :  -385.5326002097644960 Eh
Relativity type    :
Basis              : AO
                                X                 Y                 Z
Electronic contribution:      3.237159893       2.682462219      -1.618915652
Nuclear contribution   :     -3.147565584      -3.225163794       2.097487511
                        -----------------------------------------
Total Dipole Moment    :      0.089594308      -0.542701575       0.478571859
                        -----------------------------------------
Magnitude (a.u.)       :      0.729097499
Magnitude (Debye)      :      1.853218566

Rotational constants in cm-1:             0.176071             0.030199             0.028252
Rotational constants in MHz :          5278.472986           905.344593           846.987095

                             ****ORCA TERMINATED NORMALLY****
TOTAL RUN TIME: 0 days 0 hours 0 minutes 10 seconds 558 msec
