                         Program Version 6.0.0  -   RELEASE  -
|  1> ! pbe def2-sv(p) def2/J RI DEFGRID1 loosescf d4 GCP(DFT/SV(P)) printgap
|  2> %output
|  3>     printlevel normal
|  4> end
|  5> * xyz 0 1
|  6> C -2.0603629757 0.3901528077 0.7126523183
|  7> C -1.4878721988 -0.5937371732 -0.3019012095
|  8> C -0.2388444647 -0.042993842 -0.9796049429
|  9> N 0.8991852415 0.0433047636 -0.0666324255
| 10> O 1.7265909876 0.9070697247 -0.2891491047
| 11> O 0.9847417707 -0.7483425668 0.8469845595
| 12> H -1.3498077316 0.5728728623 1.5163922152
| 13> H -2.299644288 1.3388576587 0.2383454524
| 14> H -2.9680136279 -0.0121774772 1.1528014768
| 15> H -2.2294510231 -0.7987476582 -1.0730003427
| 16> H -1.2411256677 -1.5320192431 0.1963599431
| 17> H 0.0757820359 -0.707808876 -1.7898498306
| 18> H -0.3938256716 0.9559650352 -1.3912966293
| 19> *
| 20>
| 21>                          ****END OF INPUT****

CARTESIAN COORDINATES (ANGSTROEM)
---------------------------------
  C     -2.060363    0.390153    0.712652
  C     -1.487872   -0.593737   -0.301901
  C     -0.238844   -0.042994   -0.979605
  N      0.899185    0.043305   -0.066632
  O      1.726591    0.907070   -0.289149
  O      0.984742   -0.748343    0.846985
  H     -1.349808    0.572873    1.516392
  H     -2.299644    1.338858    0.238345
  H     -2.968014   -0.012177    1.152801
  H     -2.229451   -0.798748   -1.073000
  H     -1.241126   -1.532019    0.196360
  H      0.075782   -0.707809   -1.789850
  H     -0.393826    0.955965   -1.391297

 Total Charge           Charge          ....    0
 Multiplicity           Mult            ....    1
 Number of Electrons    NEL             ....   48
 Basis Dimension        Dim             ....   98

ORBITAL ENERGIES
----------------

  NO   OCC          E(Eh)            E(eV)
   0   2.0000     -18.785186      -511.1709
   1   2.0000     -18.780381      -511.0401
   2   2.0000     -14.207288      -386.6000
   3   2.0000      -9.949394      -270.7368
   4   2.0000      -9.910007      -269.6650
   5   2.0000      -9.890546      -269.1354
   6   2.0000      -1.135011       -30.8852
   7   2.0000      -0.964039       -26.2328
   8   2.0000      -0.769074       -20.9276
   9   2.0000      -0.682143       -18.5620
  10   2.0000      -0.583070       -15.8662
  11   2.0000      -0.519562       -14.1380
  12   2.0000      -0.505148       -13.7458
  13   2.0000      -0.481961       -13.1148
  14   2.0000      -0.450440       -12.2571
  15   2.0000      -0.416176       -11.3247
  16   2.0000      -0.406517       -11.0619
  17   2.0000      -0.380507       -10.3541
  18   2.0000      -0.329601        -8.9689
  19   2.0000      -0.326172        -8.8756
  20   2.0000      -0.318525        -8.6675
  21   2.0000      -0.275264        -7.4903
  22   2.0000      -0.256610        -6.9827
  23   2.0000      -0.234140        -6.3713
  24   0.0000      -0.097230        -2.6458
  25   0.0000       0.027217         0.7406
  26   0.0000       0.067044         1.8244
  27   0.0000       0.069831         1.9002
  28   0.0000       0.088752         2.4151

MULLIKEN ATOMIC CHARGES
-----------------------
   0 C :   -0.294029
   1 C :   -0.203972
   2 C :   -0.065921
   3 N :    0.179155
   4 O :   -0.219949
   5 O :   -0.210746
   6 H :    0.119951
   7 H :    0.103282
   8 H :    0.115746
   9 H :    0.101549
  10 H :    0.118636
  11 H :    0.139586
  12 H :    0.116712
Sum of atomic charges:   -0.0000000

LOEWDIN ATOMIC CHARGES
----------------------
   0 C :   -0.344312
   1 C :   -0.248875
   2 C :   -0.185175
   3 N :    0.238915
   4 O :   -0.189100
   5 O :   -0.182749
   6 H :    0.123891
   7 H :    0.119154
   8 H :    0.126584
   9 H :    0.128000
  10 H :    0.131721
  11 H :    0.147005
  12 H :    0.134940

  Mayer bond orders larger than 0.100000
B(  0-C ,  1-C ) :   1.1480 B(  0-C ,  6-H ) :   0.9526 B(  0-C ,  7-H ) :   0.9544
B(  0-C ,  8-H ) :   0.9525 B(  1-C ,  2-C ) :   1.1071 B(  1-C ,  9-H ) :   0.9144
B(  1-C , 10-H ) :   0.9078 B(  2-C ,  3-N ) :   0.8989 B(  2-C , 11-H ) :   0.9069
B(  2-C , 12-H ) :   0.9188 B(  3-N ,  4-O ) :   1.5459 B(  3-N ,  5-O ) :   1.5448
B(  4-O ,  5-O ) :   0.3097

Dispersion correction           -0.008801937
FINAL SINGLE POINT ENERGY      -322.969846652920

DIPOLE MOMENT
-------------

Method             : SCF
Type of density    : Electron Density
Multiplicity       :   1
Irrep              :   0
Energy             :  -323.0207764026626478 Eh
Relativity type    :
Basis              : AO
                                X                 Y                 Z
Electronic contribution:      8.613093685       0.011157474       0.364884408
Nuclear contribution   :     -9.717512849      -0.169145048      -1.071217818
                        -----------------------------------------
Total Dipole Moment    :     -1.104419164      -0.157987574      -0.706333411
                        -----------------------------------------
Magnitude (a.u.)       :      1.320457742
Magnitude (Debye)      :      3.356336849

Rotational constants in cm-1:             0.226408             0.081100             0.075997
Rotational constants in MHz :          6787.540636          2431.327373          2278.342518

                             ****ORCA TERMINATED NORMALLY****
TOTAL RUN TIME: 0 days 0 hours 0 minutes 9 seconds 841 msec
