                         Program Version 6.0.0  -   RELEASE  -
|  1> ! r2scan-3c def2/J RI DEFGRID2 scfconv6 printgap
|  2> %output
|  3>     printlevel normal
|  4> end
|  5> * xyz 0 1
|  6> C -3.5995553695 0.053272373 1.8863052923
|  7> C -3.0548794762 0.5288864975 0.5394737245
|  8> H -3.1776429327 1.6097367789 0.4360567194
|  9> C -1.5868371157 0.1874742607 0.3814522055
| 10> C -1.1800439163 -1.1601910837 0.3555255491
| 11> C 0.1398684214 -1.490164103 0.2316578466
| 12> C 1.1302131199 -0.4911475189 0.1278172724
| 13> C 2.4982649064 -0.8114482718 0.003924032
| 14> C 3.4371865452 0.1843780909 -0.0981536748
| 15> C 3.0311450151 1.5397614758 -0.080035109
| 16> C 1.7151968515 1.8687554676 0.0384261723
| 17> C 0.7246208634 0.8672287092 0.1460795765
| 18> C -0.643582816 1.1760287103 0.2696716222
| 19> O 4.7818321276 -0.0058893892 -0.2208059179
| 20> C 5.2766923197 -1.3306076697 -0.2449427809
| 21> C -3.7791773954 -0.1300703532 -0.6137018935
| 22> O -4.2261421276 -1.2562931108 -0.6073863613
| 23> O -3.8411249069 0.657918853 -1.6756154931
| 24> H -3.5957229785 -1.0324643097 1.9304030743
| 25> H -2.9828198631 0.4435590517 2.6906586838
| 26> H -4.6216849209 0.3977145508 2.0212502466
| 27> H -1.929961356 -1.9348899101 0.4209552656
| 28> H 0.4410008344 -2.5272800773 0.2104035079
| 29> H 2.775001237 -1.8538205668 -0.0069796447
| 30> H 3.7998484379 2.2917039423 -0.1629126914
| 31> H 1.4122384708 2.9047310221 0.051755195
| 32> H -0.9383210076 2.2152977629 0.2797894398
| 33> H 5.0386118172 -1.8566019287 0.6832579041
| 34> H 6.3551997379 -1.2329204605 -0.3450292546
| 35> H 4.8759391068 -1.8849802483 -1.0976112633
| 36> H -4.2664067189 0.2289047893 -2.443830152
| 37> *
| 38>
| 39>                          ****END OF INPUT****

CARTESIAN COORDINATES (ANGSTROEM)
---------------------------------
  C     -3.599555    0.053272    1.886305
  C     -3.054879    0.528886    0.539474
  H     -3.177643    1.609737    0.436057
  C     -1.586837    0.187474    0.381452
  C     -1.180044   -1.160191    0.355526
  C      0.139868   -1.490164    0.231658
  C      1.130213   -0.491148    0.127817
  C      2.498265   -0.811448    0.003924
  C      3.437187    0.184378   -0.098154
  C      3.031145    1.539761   -0.080035
  C      1.715197    1.868755    0.038426
  C      0.724621    0.867229    0.146080
  C     -0.643583    1.176029    0.269672
  O      4.781832   -0.005889   -0.220806
  C      5.276692   -1.330608   -0.244943
  C     -3.779177   -0.130070   -0.613702
  O     -4.226142   -1.256293   -0.607386
  O     -3.841125    0.657919   -1.675615
  H     -3.595723   -1.032464    1.930403
  H     -2.982820    0.443559    2.690659
  H     -4.621685    0.397715    2.021250
  H     -1.929961   -1.934890    0.420955
  H      0.441001   -2.527280    0.210404
  H      2.775001   -1.853821   -0.006980
  H      3.799848    2.291704   -0.162913
  H      1.412238    2.904731    0.051755
  H     -0.938321    2.215298    0.279789
  H      5.038612   -1.856602    0.683258
  H      6.355200   -1.232920   -0.345029
  H      4.875939   -1.884980   -1.097611
  H     -4.266407    0.228905   -2.443830

 Total Charge           Charge          ....    0
 Multiplicity           Mult            ....    1
 Number of Electrons    NEL             ....  122
 Basis Dimension        Dim             ....  408

ORBITAL ENERGIES
----------------

  NO   OCC          E(Eh)            E(eV)
   0   2.0000     -19.004758      -517.1458
   1   2.0000     -18.990389      -516.7548
   2   2.0000     -18.935169      -515.2521
   3   2.0000     -10.161752      -276.5153
   4   2.0000     -10.098833      -274.8032
   5   2.0000     -10.089926      -274.5608
   6   2.0000     -10.058893      -273.7164
   7   2.0000     -10.047584      -273.4087
   8   2.0000     -10.047443      -273.4048
   9   2.0000     -10.043056      -273.2855
  10   2.0000     -10.040950      -273.2282
  11   2.0000     -10.037131      -273.1242
  12   2.0000     -10.036307      -273.1018
  13   2.0000     -10.035314      -273.0748
  14   2.0000     -10.033971      -273.0382
  15   2.0000     -10.033440      -273.0238
  16   2.0000     -10.026225      -272.8274
  17   2.0000      -1.078862       -29.3573
  18   2.0000      -1.037770       -28.2391
  19   2.0000      -0.980885       -26.6912
  20   2.0000      -0.849589       -23.1185
  21   2.0000      -0.808187       -21.9919
  22   2.0000      -0.766894       -20.8682
  23   2.0000      -0.744077       -20.2474
  24   2.0000      -0.715640       -19.4735
  25   2.0000      -0.693470       -18.8703
  26   2.0000      -0.668673       -18.1955
  27   2.0000      -0.648011       -17.6333
  28   2.0000      -0.597616       -16.2620
  29   2.0000      -0.587430       -15.9848
  30   2.0000      -0.572895       -15.5893
  31   2.0000      -0.548651       -14.9296
  32   2.0000      -0.505487       -13.7550
  33   2.0000      -0.490413       -13.3448
  34   2.0000      -0.485356       -13.2072
  35   2.0000      -0.460034       -12.5182
  36   2.0000      -0.443949       -12.0805
  37   2.0000      -0.441957       -12.0263
  38   2.0000      -0.439976       -11.9724
  39   2.0000      -0.433593       -11.7987
  40   2.0000      -0.420291       -11.4367
  41   2.0000      -0.411547       -11.1988
  42   2.0000      -0.398202       -10.8356
  43   2.0000      -0.388423       -10.5695
  44   2.0000      -0.379820       -10.3354
  45   2.0000      -0.375174       -10.2090
  46   2.0000      -0.372096       -10.1253
  47   2.0000      -0.363238        -9.8842
  48   2.0000      -0.351916        -9.5761
  49   2.0000      -0.344160        -9.3651
  50   2.0000      -0.328207        -8.9310
  51   2.0000      -0.327369        -8.9082
  52   2.0000      -0.320227        -8.7138
  53   2.0000      -0.306101        -8.3294
  54   2.0000      -0.297442        -8.0938
  55   2.0000      -0.292810        -7.9678
  56   2.0000      -0.280834        -7.6419
  57   2.0000      -0.264228        -7.1900
  58   2.0000      -0.241218        -6.5639
  59   2.0000      -0.218109        -5.9350
  60   2.0000      -0.194349        -5.2885
  61   0.0000      -0.064883        -1.7655
  62   0.0000      -0.038150        -1.0381
  63   0.0000      -0.013618        -0.3706
  64   0.0000      -0.001680        -0.0457
  65   0.0000       0.055363         1.5065

MULLIKEN ATOMIC CHARGES
-----------------------
   0 C :   -0.491125
   1 C :   -0.073454
   2 H :    0.151574
   3 C :    0.125947
   4 C :   -0.218799
   5 C :   -0.305283
   6 C :    0.235338
   7 C :   -0.371052
   8 C :    0.366016
   9 C :   -0.316785
  10 C :   -0.264431
  11 C :    0.170203
  12 C :   -0.268245
  13 O :   -0.180114
  14 C :   -0.331283
  15 C :    0.335196
  16 O :   -0.407627
  17 O :   -0.333923
  18 H :    0.178140
  19 H :    0.157640
  20 H :    0.149198
  21 H :    0.174323
  22 H :    0.139345
  23 H :    0.144229
  24 H :    0.158314
  25 H :    0.144048
  26 H :    0.141286
  27 H :    0.153862
  28 H :    0.155985
  29 H :    0.153811
  30 H :    0.327664
Sum of atomic charges:   -0.0000000

LOEWDIN ATOMIC CHARGES
----------------------
   0 C :   -0.373837
   1 C :   -0.147633
   2 H :    0.185802
   3 C :   -0.076151
   4 C :   -0.138822
   5 C :   -0.143468
   6 C :   -0.045887
   7 C :   -0.162281
   8 C :    0.190796
   9 C :   -0.120699
  10 C :   -0.133533
  11 C :   -0.064789
  12 C :   -0.130488
  13 O :   -0.681853
  14 C :   -0.054434
  15 C :    0.351454
  16 O :   -0.426326
  17 O :   -0.393690
  18 H :    0.171315
  19 H :    0.160753
  20 H :    0.159094
  21 H :    0.185923
  22 H :    0.170271
  23 H :    0.178251
  24 H :    0.182395
  25 H :    0.172136
  26 H :    0.172954
  27 H :    0.165925
  28 H :    0.180569
  29 H :    0.165895
  30 H :    0.300358

  Mayer bond orders larger than 0.100000
B(  0-C ,  1-C ) :   0.9347 B(  0-C , 18-H ) :   0.9638 B(  0-C , 19-H ) :   0.9749
B(  0-C , 20-H ) :   0.9711 B(  1-C ,  2-H ) :   0.9747 B(  1-C ,  3-C ) :   0.8169
B(  1-C , 15-C ) :   0.9428 B(  3-C ,  4-C ) :   1.2734 B(  3-C , 12-C ) :   1.4826
B(  4-C ,  5-C ) :   1.4997 B(  4-C , 21-H ) :   0.9301 B(  5-C ,  6-C ) :   1.1838
B(  5-C , 22-H ) :   0.9654 B(  6-C ,  7-C ) :   1.1859 B(  6-C , 11-C ) :   1.5170
B(  7-C ,  8-C ) :   1.4226 B(  7-C , 23-H ) :   0.9042 B(  8-C ,  9-C ) :   1.2731
B(  8-C , 13-O ) :   1.0630 B(  9-C , 10-C ) :   1.4497 B(  9-C , 24-H ) :   0.9430
B( 10-C , 11-C ) :   1.2033 B( 10-C , 25-H ) :   0.9486 B( 11-C , 12-C ) :   1.2311
B( 12-C , 26-H ) :   0.9388 B( 13-O , 14-C ) :   0.8578 B( 14-C , 27-H ) :   0.9628
B( 14-C , 28-H ) :   0.9681 B( 14-C , 29-H ) :   0.9626 B( 15-C , 16-O ) :   1.9159
B( 15-C , 17-O ) :   1.0614 B( 17-O , 30-H ) :   0.8604

Dispersion correction           -0.013047817
FINAL SINGLE POINT ENERGY      -767.449286645821

DIPOLE MOMENT
-------------

Method             : SCF
Type of density    : Electron Density
Multiplicity       :   1
Irrep              :   0
Energy             :  -767.4498715240979436 Eh
Relativity type    :
Basis              : AO
                                X                 Y                 Z
Electronic contribution:     -2.394693173       2.262981385      -4.487123111
Nuclear contribution   :      2.939671727      -2.102299745       4.342450618
                        -----------------------------------------
Total Dipole Moment    :      0.544978554       0.160681640      -0.144672493
                        -----------------------------------------
Magnitude (a.u.)       :      0.586302263
Magnitude (Debye)      :      1.490261920

Rotational constants in cm-1:             0.043816             0.006962             0.006632
Rotational constants in MHz :          1313.576647           208.727639           198.821067

                             ****ORCA TERMINATED NORMALLY****
TOTAL RUN TIME: 0 days 0 hours 1 minutes 25 seconds 444 msec
