                         Program Version 6.0.0  -   RELEASE  -
|  1> ! r2scan-3c def2/J RI DEFGRID2 scfconv6 printgap
|  2> %output
|  3>     printlevel normal
|  4> end
|  5> %cpcm
|  6>     smd true
|  7>     smdsolvent "water"
|  8> end
|  9> * xyz 0 1
| 10> C -3.5995553695 0.053272373 1.8863052923
| 11> C -3.0548794762 0.5288864975 0.5394737245
| 12> H -3.1776429327 1.6097367789 0.4360567194
| 13> C -1.5868371157 0.1874742607 0.3814522055
| 14> C -1.1800439163 -1.1601910837 0.3555255491
| 15> C 0.1398684214 -1.490164103 0.2316578466
| 16> C 1.1302131199 -0.4911475189 0.1278172724
| 17> C 2.4982649064 -0.8114482718 0.003924032
| 18> C 3.4371865452 0.1843780909 -0.0981536748
| 19> C 3.0311450151 1.5397614758 -0.080035109
| 20> C 1.7151968515 1.8687554676 0.0384261723
| 21> C 0.7246208634 0.8672287092 0.1460795765
| 22> C -0.643582816 1.1760287103 0.2696716222
| 23> O 4.7818321276 -0.0058893892 -0.2208059179
| 24> C 5.2766923197 -1.3306076697 -0.2449427809
| 25> C -3.7791773954 -0.1300703532 -0.6137018935
| 26> O -4.2261421276 -1.2562931108 -0.6073863613
| 27> O -3.8411249069 0.657918853 -1.6756154931
| 28> H -3.5957229785 -1.0324643097 1.9304030743
| 29> H -2.9828198631 0.4435590517 2.6906586838
| 30> H -4.6216849209 0.3977145508 2.0212502466
| 31> H -1.929961356 -1.9348899101 0.4209552656
| 32> H 0.4410008344 -2.5272800773 0.2104035079
| 33> H 2.775001237 -1.8538205668 -0.0069796447
| 34> H 3.7998484379 2.2917039423 -0.1629126914
| 35> H 1.4122384708 2.9047310221 0.051755195
| 36> H -0.9383210076 2.2152977629 0.2797894398
| 37> H 5.0386118172 -1.8566019287 0.6832579041
| 38> H 6.3551997379 -1.2329204605 -0.3450292546
| 39> H 4.8759391068 -1.8849802483 -1.0976112633
| 40> H -4.2664067189 0.2289047893 -2.443830152
| 41> *
| 42>
| 43>                          ****END OF INPUT****

CARTESIAN COORDINATES (ANGSTROEM)
---------------------------------
  C     -3.599555    0.053272    1.886305
  C     -3.054879    0.528886    0.539474
  H     -3.177643    1.609737    0.436057
  C     -1.586837    0.187474    0.381452
  C     -1.180044   -1.160191    0.355526
  C      0.139868   -1.490164    0.231658
  C      1.130213   -0.491148    0.127817
  C      2.498265   -0.811448    0.003924
  C      3.437187    0.184378   -0.098154
  C      3.031145    1.539761   -0.080035
  C      1.715197    1.868755    0.038426
  C      0.724621    0.867229    0.146080
  C     -0.643583    1.176029    0.269672
  O      4.781832   -0.005889   -0.220806
  C      5.276692   -1.330608   -0.244943
  C     -3.779177   -0.130070   -0.613702
  O     -4.226142   -1.256293   -0.607386
  O     -3.841125    0.657919   -1.675615
  H     -3.595723   -1.032464    1.930403
  H     -2.982820    0.443559    2.690659
  H     -4.621685    0.397715    2.021250
  H     -1.929961   -1.934890    0.420955
  H      0.441001   -2.527280    0.210404
  H      2.775001   -1.853821   -0.006980
  H      3.799848    2.291704   -0.162913
  H      1.412238    2.904731    0.051755
  H     -0.938321    2.215298    0.279789
  H      5.038612   -1.856602    0.683258
  H      6.355200   -1.232920   -0.345029
  H      4.875939   -1.884980   -1.097611
  H     -4.266407    0.228905   -2.443830

 Total Charge           Charge          ....    0
 Multiplicity           Mult            ....    1
 Number of Electrons    NEL             ....  122
 Basis Dimension        Dim             ....  408

ORBITAL ENERGIES
----------------

  NO   OCC          E(Eh)            E(eV)
   0   2.0000     -19.003328      -517.1068
   1   2.0000     -18.990470      -516.7569
   2   2.0000     -18.947422      -515.5856
   3   2.0000     -10.169649      -276.7302
   4   2.0000     -10.099160      -274.8121
   5   2.0000     -10.073279      -274.1079
   6   2.0000     -10.054919      -273.6082
   7   2.0000     -10.048855      -273.4433
   8   2.0000     -10.048510      -273.4339
   9   2.0000     -10.044415      -273.3224
  10   2.0000     -10.039604      -273.1915
  11   2.0000     -10.036870      -273.1171
  12   2.0000     -10.035206      -273.0718
  13   2.0000     -10.035074      -273.0682
  14   2.0000     -10.034566      -273.0544
  15   2.0000     -10.031936      -272.9829
  16   2.0000     -10.020690      -272.6768
  17   2.0000      -1.081112       -29.4186
  18   2.0000      -1.036986       -28.2178
  19   2.0000      -0.989641       -26.9295
  20   2.0000      -0.851268       -23.1642
  21   2.0000      -0.808398       -21.9976
  22   2.0000      -0.766060       -20.8456
  23   2.0000      -0.743676       -20.2365
  24   2.0000      -0.713756       -19.4223
  25   2.0000      -0.691974       -18.8296
  26   2.0000      -0.662896       -18.0383
  27   2.0000      -0.644052       -17.5255
  28   2.0000      -0.596697       -16.2370
  29   2.0000      -0.584493       -15.9049
  30   2.0000      -0.570259       -15.5175
  31   2.0000      -0.544988       -14.8299
  32   2.0000      -0.500953       -13.6316
  33   2.0000      -0.490377       -13.3438
  34   2.0000      -0.483907       -13.1678
  35   2.0000      -0.465583       -12.6692
  36   2.0000      -0.449271       -12.2253
  37   2.0000      -0.439227       -11.9520
  38   2.0000      -0.433993       -11.8095
  39   2.0000      -0.431804       -11.7500
  40   2.0000      -0.415719       -11.3123
  41   2.0000      -0.410984       -11.1834
  42   2.0000      -0.394175       -10.7261
  43   2.0000      -0.384846       -10.4722
  44   2.0000      -0.379547       -10.3280
  45   2.0000      -0.376263       -10.2386
  46   2.0000      -0.372725       -10.1424
  47   2.0000      -0.360233        -9.8024
  48   2.0000      -0.347620        -9.4592
  49   2.0000      -0.342433        -9.3181
  50   2.0000      -0.326124        -8.8743
  51   2.0000      -0.324143        -8.8204
  52   2.0000      -0.318439        -8.6652
  53   2.0000      -0.303725        -8.2648
  54   2.0000      -0.302423        -8.2294
  55   2.0000      -0.294186        -8.0052
  56   2.0000      -0.282769        -7.6945
  57   2.0000      -0.267185        -7.2705
  58   2.0000      -0.252357        -6.8670
  59   2.0000      -0.221384        -6.0242
  60   2.0000      -0.196374        -5.3436
  61   0.0000      -0.067285        -1.8309
  62   0.0000      -0.041913        -1.1405
  63   0.0000      -0.018524        -0.5041
  64   0.0000      -0.004010        -0.1091
  65   0.0000       0.064826         1.7640

MULLIKEN ATOMIC CHARGES
-----------------------
   0 C :   -0.546598
   1 C :   -0.026711
   2 H :    0.181911
   3 C :    0.090783
   4 C :   -0.233436
   5 C :   -0.333677
   6 C :    0.179000
   7 C :   -0.347455
   8 C :    0.348806
   9 C :   -0.345674
  10 C :   -0.295425
  11 C :    0.127287
  12 C :   -0.269915
  13 O :   -0.220158
  14 C :   -0.339165
  15 C :    0.354100
  16 O :   -0.482020
  17 O :   -0.360710
  18 H :    0.180499
  19 H :    0.174163
  20 H :    0.171562
  21 H :    0.190329
  22 H :    0.174325
  23 H :    0.184837
  24 H :    0.185848
  25 H :    0.180749
  26 H :    0.179597
  27 H :    0.172025
  28 H :    0.174752
  29 H :    0.172016
  30 H :    0.378354
Sum of atomic charges:   -0.0000000

LOEWDIN ATOMIC CHARGES
----------------------
   0 C :   -0.379222
   1 C :   -0.143523
   2 H :    0.197975
   3 C :   -0.083089
   4 C :   -0.150255
   5 C :   -0.149679
   6 C :   -0.060723
   7 C :   -0.161194
   8 C :    0.179999
   9 C :   -0.130802
  10 C :   -0.138286
  11 C :   -0.078723
  12 C :   -0.132956
  13 O :   -0.706172
  14 C :   -0.050083
  15 C :    0.361209
  16 O :   -0.481080
  17 O :   -0.385909
  18 H :    0.169432
  19 H :    0.166457
  20 H :    0.165728
  21 H :    0.189866
  22 H :    0.183300
  23 H :    0.193833
  24 H :    0.191299
  25 H :    0.185592
  26 H :    0.187349
  27 H :    0.175272
  28 H :    0.187649
  29 H :    0.175257
  30 H :    0.321481

  Mayer bond orders larger than 0.100000
B(  0-C ,  1-C ) :   0.9056 B(  0-C , 18-H ) :   0.9657 B(  0-C , 19-H ) :   0.9702
B(  0-C , 20-H ) :   0.9690 B(  1-C ,  2-H ) :   0.9659 B(  1-C ,  3-C ) :   0.8152
B(  1-C , 15-C ) :   0.9425 B(  3-C ,  4-C ) :   1.2280 B(  3-C , 12-C ) :   1.4805
B(  4-C ,  5-C ) :   1.4760 B(  4-C , 21-H ) :   0.9378 B(  5-C ,  6-C ) :   1.1915
B(  5-C , 22-H ) :   0.9772 B(  6-C ,  7-C ) :   1.2065 B(  6-C , 11-C ) :   1.4139
B(  7-C ,  8-C ) :   1.4133 B(  7-C , 23-H ) :   0.9096 B(  8-C ,  9-C ) :   1.2199
B(  8-C , 13-O ) :   1.0491 B(  9-C , 10-C ) :   1.4425 B(  9-C , 24-H ) :   0.9545
B( 10-C , 11-C ) :   1.2111 B( 10-C , 25-H ) :   0.9574 B( 11-C , 12-C ) :   1.2345
B( 12-C , 26-H ) :   0.9511 B( 13-O , 14-C ) :   0.8500 B( 14-C , 27-H ) :   0.9551
B( 14-C , 28-H ) :   0.9602 B( 14-C , 29-H ) :   0.9548 B( 15-C , 16-O ) :   1.8574
B( 15-C , 17-O ) :   1.0923 B( 17-O , 30-H ) :   0.8358

Dispersion correction           -0.013047817
FINAL SINGLE POINT ENERGY      -767.463691356959

DIPOLE MOMENT
-------------

Method             : SCF
Type of density    : Electron Density
Multiplicity       :   1
Irrep              :   0
Energy             :  -767.4642762352361842 Eh
Relativity type    :
Basis              : AO
                                X                 Y                 Z
Electronic contribution:     -2.338444869       2.402385334      -4.531834384
Nuclear contribution   :      2.939671727      -2.102299745       4.342450618
                        -----------------------------------------
Total Dipole Moment    :      0.601226858       0.300085589      -0.189383766
                        -----------------------------------------
Magnitude (a.u.)       :      0.698134161
Magnitude (Debye)      :      1.774516014

Rotational constants in cm-1:             0.043816             0.006962             0.006632
Rotational constants in MHz :          1313.576647           208.727639           198.821067

                             ****ORCA TERMINATED NORMALLY****
TOTAL RUN TIME: 0 days 0 hours 1 minutes 47 seconds 895 msec
