                         Program Version 6.0.0  -   RELEASE  -
|  1> ! r2scan-3c def2/J RI DEFGRID2 scfconv6 printgap
|  2> %output
|  3>     printlevel normal
|  4> end
|  5> * xyz 0 1
|  6> C -3.3188942716 -0.8571245753 0.2318029474
|  7> C -1.9159654537 -0.5790640709 -0.2942228095
|  8> C -1.5047749497 0.8730455265 -0.0593467413
|  9> C -0.1117387354 1.1687197585 -0.6214400948
| 10> C 0.9479192248 0.4080925165 0.1318752305
| 11> O 1.0619499641 0.3740324387 1.3389666282
| 12> O 1.7713487772 -0.2332303585 -0.6916850433
| 13> C 2.8388714188 -0.9855372108 -0.108953522
| 14> H -3.368486396 -0.6624339758 1.3006146769
| 15> H -4.0443892288 -0.2196469801 -0.2676885768
| 16> H -3.5929938774 -1.8943989904 0.0578925047
| 17> H -1.2022902469 -1.2387070625 0.2064657507
| 18> H -1.8776144558 -0.7981080696 -1.3634739649
| 19> H -1.500759146 1.0799909769 1.012746621
| 20> H -2.2276363899 1.5368847314 -0.5348495647
| 21> H 0.1074486614 2.2317341703 -0.505284312
| 22> H -0.0459174328 0.9034813908 -1.6759941429
| 23> H 2.4342895763 -1.8036435738 0.4881235119
| 24> H 3.441568107 -0.3424227832 0.5333270773
| 25> H 3.4212036196 -1.3630657687 -0.9432914049
| 26> *
| 27>
| 28>                          ****END OF INPUT****

CARTESIAN COORDINATES (ANGSTROEM)
---------------------------------
  C     -3.318894   -0.857125    0.231803
  C     -1.915965   -0.579064   -0.294223
  C     -1.504775    0.873046   -0.059347
  C     -0.111739    1.168720   -0.621440
  C      0.947919    0.408093    0.131875
  O      1.061950    0.374032    1.338967
  O      1.771349   -0.233230   -0.691685
  C      2.838871   -0.985537   -0.108954
  H     -3.368486   -0.662434    1.300615
  H     -4.044389   -0.219647   -0.267689
  H     -3.592994   -1.894399    0.057893
  H     -1.202290   -1.238707    0.206466
  H     -1.877614   -0.798108   -1.363474
  H     -1.500759    1.079991    1.012747
  H     -2.227636    1.536885   -0.534850
  H      0.107449    2.231734   -0.505284
  H     -0.045917    0.903481   -1.675994
  H      2.434290   -1.803644    0.488124
  H      3.441568   -0.342423    0.533327
  H      3.421204   -1.363066   -0.943291

 Total Charge           Charge          ....    0
 Multiplicity           Mult            ....    1
 Number of Electrons    NEL             ....   64
 Basis Dimension        Dim             ....  222

ORBITAL ENERGIES
----------------

  NO   OCC          E(Eh)            E(eV)
   0   2.0000     -19.000128      -517.0198
   1   2.0000     -18.929197      -515.0896
   2   2.0000     -10.152158      -276.2543
   3   2.0000     -10.086918      -274.4790
   4   2.0000     -10.041717      -273.2490
   5   2.0000     -10.031558      -272.9726
   6   2.0000     -10.026746      -272.8416
   7   2.0000     -10.016690      -272.5680
   8   2.0000      -1.073469       -29.2106
   9   2.0000      -0.976436       -26.5702
  10   2.0000      -0.777552       -21.1583
  11   2.0000      -0.726687       -19.7742
  12   2.0000      -0.686861       -18.6904
  13   2.0000      -0.614814       -16.7299
  14   2.0000      -0.557740       -15.1769
  15   2.0000      -0.526376       -14.3234
  16   2.0000      -0.473611       -12.8876
  17   2.0000      -0.456466       -12.4211
  18   2.0000      -0.445222       -12.1151
  19   2.0000      -0.425791       -11.5863
  20   2.0000      -0.410300       -11.1648
  21   2.0000      -0.396172       -10.7804
  22   2.0000      -0.387859       -10.5542
  23   2.0000      -0.353042        -9.6067
  24   2.0000      -0.349491        -9.5101
  25   2.0000      -0.335907        -9.1405
  26   2.0000      -0.321782        -8.7561
  27   2.0000      -0.307451        -8.3662
  28   2.0000      -0.299184        -8.1412
  29   2.0000      -0.295122        -8.0307
  30   2.0000      -0.274945        -7.4816
  31   2.0000      -0.237403        -6.4601
  32   0.0000      -0.016358        -0.4451
  33   0.0000       0.065054         1.7702
  34   0.0000       0.090341         2.4583
  35   0.0000       0.107888         2.9358
  36   0.0000       0.113478         3.0879

MULLIKEN ATOMIC CHARGES
-----------------------
   0 C :   -0.476247
   1 C :   -0.251784
   2 C :   -0.255348
   3 C :   -0.289673
   4 C :    0.335341
   5 O :   -0.416554
   6 O :   -0.181721
   7 C :   -0.296582
   8 H :    0.146493
   9 H :    0.140648
  10 H :    0.147063
  11 H :    0.147786
  12 H :    0.139199
  13 H :    0.163636
  14 H :    0.143493
  15 H :    0.168319
  16 H :    0.162263
  17 H :    0.159681
  18 H :    0.163505
  19 H :    0.150482
Sum of atomic charges:    0.0000000

LOEWDIN ATOMIC CHARGES
----------------------
   0 C :   -0.422049
   1 C :   -0.309087
   2 C :   -0.288284
   3 C :   -0.229905
   4 C :    0.348816
   5 O :   -0.428404
   6 O :   -0.603803
   7 C :   -0.045531
   8 H :    0.152173
   9 H :    0.149610
  10 H :    0.150881
  11 H :    0.157706
  12 H :    0.151097
  13 H :    0.170338
  14 H :    0.155789
  15 H :    0.182439
  16 H :    0.178328
  17 H :    0.175820
  18 H :    0.177909
  19 H :    0.176158

  Mayer bond orders larger than 0.100000
B(  0-C ,  1-C ) :   0.9036 B(  0-C ,  8-H ) :   0.9833 B(  0-C ,  9-H ) :   0.9827
B(  0-C , 10-H ) :   0.9742 B(  1-C ,  2-C ) :   0.9267 B(  1-C , 11-H ) :   0.9592
B(  1-C , 12-H ) :   0.9701 B(  2-C ,  3-C ) :   0.8941 B(  2-C , 13-H ) :   0.9694
B(  2-C , 14-H ) :   0.9704 B(  3-C ,  4-C ) :   0.9388 B(  3-C , 15-H ) :   0.9372
B(  3-C , 16-H ) :   1.0028 B(  4-C ,  5-O ) :   1.8217 B(  4-C ,  6-O ) :   1.0556
B(  6-O ,  7-C ) :   0.8532 B(  7-C , 17-H ) :   0.9622 B(  7-C , 18-H ) :   0.9630
B(  7-C , 19-H ) :   0.9690

Dispersion correction           -0.005111265
FINAL SINGLE POINT ENERGY      -386.231897668854

DIPOLE MOMENT
-------------

Method             : SCF
Type of density    : Electron Density
Multiplicity       :   1
Irrep              :   0
Energy             :  -386.2387170255870501 Eh
Relativity type    :
Basis              : AO
                                X                 Y                 Z
Electronic contribution:      7.982972088       2.236909134       0.878870273
Nuclear contribution   :     -7.890728330      -2.409315742      -1.577228248
                        -----------------------------------------
Total Dipole Moment    :      0.092243757      -0.172406608      -0.698357975
                        -----------------------------------------
Magnitude (a.u.)       :      0.725215010
Magnitude (Debye)      :      1.843350061

Rotational constants in cm-1:             0.130950             0.032727             0.031294
Rotational constants in MHz :          3925.773873           981.135169           938.157270

                             ****ORCA TERMINATED NORMALLY****
TOTAL RUN TIME: 0 days 0 hours 0 minutes 29 seconds 40 msec
