                         Program Version 6.0.0  -   RELEASE  -
|  1> ! r2scan-3c def2/J RI DEFGRID2 scfconv6 printgap
|  2> %output
|  3>     printlevel normal
|  4> end
|  5> %cpcm
|  6>     smd true
|  7>     smdsolvent "water"
|  8> end
|  9> * xyz 0 1
| 10> C -3.3188942716 -0.8571245753 0.2318029474
| 11> C -1.9159654537 -0.5790640709 -0.2942228095
| 12> C -1.5047749497 0.8730455265 -0.0593467413
| 13> C -0.1117387354 1.1687197585 -0.6214400948
| 14> C 0.9479192248 0.4080925165 0.1318752305
| 15> O 1.0619499641 0.3740324387 1.3389666282
| 16> O 1.7713487772 -0.2332303585 -0.6916850433
| 17> C 2.8388714188 -0.9855372108 -0.108953522
| 18> H -3.368486396 -0.6624339758 1.3006146769
| 19> H -4.0443892288 -0.2196469801 -0.2676885768
| 20> H -3.5929938774 -1.8943989904 0.0578925047
| 21> H -1.2022902469 -1.2387070625 0.2064657507
| 22> H -1.8776144558 -0.7981080696 -1.3634739649
| 23> H -1.500759146 1.0799909769 1.012746621
| 24> H -2.2276363899 1.5368847314 -0.5348495647
| 25> H 0.1074486614 2.2317341703 -0.505284312
| 26> H -0.0459174328 0.9034813908 -1.6759941429
| 27> H 2.4342895763 -1.8036435738 0.4881235119
| 28> H 3.441568107 -0.3424227832 0.5333270773
| 29> H 3.4212036196 -1.3630657687 -0.9432914049
| 30> *
| 31>
| 32>                          ****END OF INPUT****

CARTESIAN COORDINATES (ANGSTROEM)
---------------------------------
  C     -3.318894   -0.857125    0.231803
  C     -1.915965   -0.579064   -0.294223
  C     -1.504775    0.873046   -0.059347
  C     -0.111739    1.168720   -0.621440
  C      0.947919    0.408093    0.131875
  O      1.061950    0.374032    1.338967
  O      1.771349   -0.233230   -0.691685
  C      2.838871   -0.985537   -0.108954
  H     -3.368486   -0.662434    1.300615
  H     -4.044389   -0.219647   -0.267689
  H     -3.592994   -1.894399    0.057893
  H     -1.202290   -1.238707    0.206466
  H     -1.877614   -0.798108   -1.363474
  H     -1.500759    1.079991    1.012747
  H     -2.227636    1.536885   -0.534850
  H      0.107449    2.231734   -0.505284
  H     -0.045917    0.903481   -1.675994
  H      2.434290   -1.803644    0.488124
  H      3.441568   -0.342423    0.533327
  H      3.421204   -1.363066   -0.943291

 Total Charge           Charge          ....    0
 Multiplicity           Mult            ....    1
 Number of Electrons    NEL             ....   64
 Basis Dimension        Dim             ....  222

ORBITAL ENERGIES
----------------

  NO   OCC          E(Eh)            E(eV)
   0   2.0000     -19.005210      -517.1580
   1   2.0000     -18.944642      -515.5099
   2   2.0000     -10.162370      -276.5321
   3   2.0000     -10.076356      -274.1916
   4   2.0000     -10.035755      -273.0868
   5   2.0000     -10.025120      -272.7974
   6   2.0000     -10.018954      -272.6296
   7   2.0000     -10.008701      -272.3506
   8   2.0000      -1.080220       -29.3943
   9   2.0000      -0.989581       -26.9279
  10   2.0000      -0.772291       -21.0151
  11   2.0000      -0.721992       -19.6464
  12   2.0000      -0.680663       -18.5218
  13   2.0000      -0.608513       -16.5585
  14   2.0000      -0.551454       -15.0058
  15   2.0000      -0.524551       -14.2737
  16   2.0000      -0.474009       -12.8984
  17   2.0000      -0.458185       -12.4678
  18   2.0000      -0.451461       -12.2849
  19   2.0000      -0.424471       -11.5505
  20   2.0000      -0.403357       -10.9759
  21   2.0000      -0.389780       -10.6065
  22   2.0000      -0.385596       -10.4926
  23   2.0000      -0.353608        -9.6222
  24   2.0000      -0.343617        -9.3503
  25   2.0000      -0.330112        -8.9828
  26   2.0000      -0.322750        -8.7825
  27   2.0000      -0.301538        -8.2053
  28   2.0000      -0.291736        -7.9386
  29   2.0000      -0.288648        -7.8545
  30   2.0000      -0.282245        -7.6803
  31   2.0000      -0.253584        -6.9004
  32   0.0000      -0.023875        -0.6497
  33   0.0000       0.069490         1.8909
  34   0.0000       0.097375         2.6497
  35   0.0000       0.116604         3.1730
  36   0.0000       0.124772         3.3952

MULLIKEN ATOMIC CHARGES
-----------------------
   0 C :   -0.518127
   1 C :   -0.256759
   2 C :   -0.271580
   3 C :   -0.306353
   4 C :    0.378441
   5 O :   -0.501623
   6 O :   -0.199310
   7 C :   -0.331521
   8 H :    0.154373
   9 H :    0.154904
  10 H :    0.157790
  11 H :    0.152406
  12 H :    0.153839
  13 H :    0.157769
  14 H :    0.163556
  15 H :    0.198661
  16 H :    0.177985
  17 H :    0.179373
  18 H :    0.177787
  19 H :    0.178389
Sum of atomic charges:    0.0000000

LOEWDIN ATOMIC CHARGES
----------------------
   0 C :   -0.430361
   1 C :   -0.310711
   2 C :   -0.288319
   3 C :   -0.227011
   4 C :    0.358889
   5 O :   -0.489097
   6 O :   -0.606071
   7 C :   -0.043059
   8 H :    0.153208
   9 H :    0.153482
  10 H :    0.153465
  11 H :    0.157643
  12 H :    0.156033
  13 H :    0.166203
  14 H :    0.163413
  15 H :    0.193162
  16 H :    0.185791
  17 H :    0.182320
  18 H :    0.182683
  19 H :    0.188337

  Mayer bond orders larger than 0.100000
B(  0-C ,  1-C ) :   0.8932 B(  0-C ,  8-H ) :   0.9818 B(  0-C ,  9-H ) :   0.9798
B(  0-C , 10-H ) :   0.9713 B(  1-C ,  2-C ) :   0.9199 B(  1-C , 11-H ) :   0.9593
B(  1-C , 12-H ) :   0.9678 B(  2-C ,  3-C ) :   0.8764 B(  2-C , 13-H ) :   0.9772
B(  2-C , 14-H ) :   0.9644 B(  3-C ,  4-C ) :   0.9419 B(  3-C , 15-H ) :   0.9310
B(  3-C , 16-H ) :   0.9923 B(  4-C ,  5-O ) :   1.7558 B(  4-C ,  6-O ) :   1.0788
B(  6-O ,  7-C ) :   0.8339 B(  7-C , 17-H ) :   0.9563 B(  7-C , 18-H ) :   0.9578
B(  7-C , 19-H ) :   0.9590

Dispersion correction           -0.005111265
FINAL SINGLE POINT ENERGY      -386.236806239708

DIPOLE MOMENT
-------------

Method             : SCF
Type of density    : Electron Density
Multiplicity       :   1
Irrep              :   0
Energy             :  -386.2436255964411771 Eh
Relativity type    :
Basis              : AO
                                X                 Y                 Z
Electronic contribution:      8.005925947       2.218340503       0.519446781
Nuclear contribution   :     -7.890728330      -2.409315742      -1.577228248
                        -----------------------------------------
Total Dipole Moment    :      0.115197617      -0.190975239      -1.057781466
                        -----------------------------------------
Magnitude (a.u.)       :      1.081038234
Magnitude (Debye)      :      2.747780821

Rotational constants in cm-1:             0.130950             0.032727             0.031294
Rotational constants in MHz :          3925.773873           981.135169           938.157270

                             ****ORCA TERMINATED NORMALLY****
TOTAL RUN TIME: 0 days 0 hours 0 minutes 33 seconds 803 msec
