                         Program Version 6.0.0  -   RELEASE  -
|  1> ! pbe def2-sv(p) def2/J RI DEFGRID1 loosescf d4 GCP(DFT/SV(P)) printgap
|  2> %output
|  3>     printlevel normal
|  4> end
|  5> * xyz 0 1
|  6> C -4.537149315 -1.0399567613 0.3456390585
|  7> C -3.8429407351 -2.2209232141 0.1213411045
|  8> C -2.480143309 -2.1901025256 -0.1085898983
|  9> C -1.7853697345 -0.9821960919 -0.1133565954
| 10> C -2.4866837601 0.2067709921 0.1149153785
| 11> C -3.8615886776 0.1654788873 0.340376467
| 12> C -1.7896622165 1.4984852584 0.1191222658
| 13> O -2.3963554285 2.5551960834 0.2864994597
| 14> C -0.3298128876 1.4665719062 -0.0740782343
| 15> C 0.3368535812 2.6757704735 0.0172213585
| 16> C 1.7189905146 2.73050619 -0.1406422747
| 17> C 2.4276249107 1.5871165314 -0.3903818531
| 18> C 1.7927445129 0.3265261153 -0.4982047786
| 19> C 0.3735557813 0.2650667878 -0.3306488968
| 20> C -0.3326249504 -0.9965751236 -0.3775441002
| 21> O 0.2189316439 -2.086111453 -0.6182286514
| 22> N 2.4861700329 -0.7798695379 -0.8068057276
| 23> C 3.9085461049 -0.9744742412 -0.6913406446
| 24> C 4.3051471937 -1.3824490208 0.7412717032
| 25> O 4.0888217795 -0.3615032445 1.6878834106
| 26> H -5.6007675372 -1.0611187011 0.5235939109
| 27> H -4.3654877373 -3.1646580417 0.1245789597
| 28> H -1.923252268 -3.097619274 -0.2892582016
| 29> H -4.3753664099 1.1000521 0.5108333005
| 30> H -0.2406521169 3.5658713123 0.2140699889
| 31> H 2.227765772 3.6788502228 -0.0678854722
| 32> H 3.4939285325 1.651309683 -0.5212975006
| 33> H 1.9259054998 -1.6318493032 -0.8083862145
| 34> H 4.4458160058 -0.0731449754 -0.9869995356
| 35> H 4.187832888 -1.7834181208 -1.3677696708
| 36> H 5.351809551 -1.7068983066 0.7473997118
| 37> H 3.6771801178 -2.2167588779 1.0637214629
| 38> H 4.7465374339 0.3364408109 1.5638236617
| 39> *
| 40>
| 41>                          ****END OF INPUT****

CARTESIAN COORDINATES (ANGSTROEM)
---------------------------------
  C     -4.537149   -1.039957    0.345639
  C     -3.842941   -2.220923    0.121341
  C     -2.480143   -2.190103   -0.108590
  C     -1.785370   -0.982196   -0.113357
  C     -2.486684    0.206771    0.114915
  C     -3.861589    0.165479    0.340376
  C     -1.789662    1.498485    0.119122
  O     -2.396355    2.555196    0.286499
  C     -0.329813    1.466572   -0.074078
  C      0.336854    2.675770    0.017221
  C      1.718991    2.730506   -0.140642
  C      2.427625    1.587117   -0.390382
  C      1.792745    0.326526   -0.498205
  C      0.373556    0.265067   -0.330649
  C     -0.332625   -0.996575   -0.377544
  O      0.218932   -2.086111   -0.618229
  N      2.486170   -0.779870   -0.806806
  C      3.908546   -0.974474   -0.691341
  C      4.305147   -1.382449    0.741272
  O      4.088822   -0.361503    1.687883
  H     -5.600768   -1.061119    0.523594
  H     -4.365488   -3.164658    0.124579
  H     -1.923252   -3.097619   -0.289258
  H     -4.375366    1.100052    0.510833
  H     -0.240652    3.565871    0.214070
  H      2.227766    3.678850   -0.067885
  H      3.493929    1.651310   -0.521298
  H      1.925905   -1.631849   -0.808386
  H      4.445816   -0.073145   -0.987000
  H      4.187833   -1.783418   -1.367770
  H      5.351810   -1.706898    0.747400
  H      3.677180   -2.216759    1.063721
  H      4.746537    0.336441    1.563824

 Total Charge           Charge          ....    0
 Multiplicity           Mult            ....    1
 Number of Electrons    NEL             ....  140
 Basis Dimension        Dim             ....  306

ORBITAL ENERGIES
----------------

  NO   OCC          E(Eh)            E(eV)
   0   2.0000     -18.761710      -510.5321
   1   2.0000     -18.745002      -510.0774
   2   2.0000     -18.738162      -509.8913
   3   2.0000     -14.015609      -381.3841
   4   2.0000      -9.973583      -271.3950
   5   2.0000      -9.969838      -271.2931
   6   2.0000      -9.955929      -270.9146
   7   2.0000      -9.948713      -270.7182
   8   2.0000      -9.940080      -270.4833
   9   2.0000      -9.909874      -269.6614
  10   2.0000      -9.907597      -269.5994
  11   2.0000      -9.907431      -269.5949
  12   2.0000      -9.907303      -269.5914
  13   2.0000      -9.905918      -269.5537
  14   2.0000      -9.905499      -269.5423
  15   2.0000      -9.904729      -269.5214
  16   2.0000      -9.904196      -269.5069
  17   2.0000      -9.901421      -269.4314
  18   2.0000      -9.900670      -269.4109
  19   2.0000      -9.891428      -269.1594
  20   2.0000      -0.939276       -25.5590
  21   2.0000      -0.936398       -25.4807
  22   2.0000      -0.930654       -25.3244
  23   2.0000      -0.869858       -23.6700
  24   2.0000      -0.793359       -21.5884
  25   2.0000      -0.778647       -21.1881
  26   2.0000      -0.721735       -19.6394
  27   2.0000      -0.703391       -19.1403
  28   2.0000      -0.684453       -18.6249
  29   2.0000      -0.680359       -18.5135
  30   2.0000      -0.653085       -17.7713
  31   2.0000      -0.605374       -16.4731
  32   2.0000      -0.597460       -16.2577
  33   2.0000      -0.580245       -15.7893
  34   2.0000      -0.568139       -15.4599
  35   2.0000      -0.535910       -14.5829
  36   2.0000      -0.520567       -14.1654
  37   2.0000      -0.497006       -13.5242
  38   2.0000      -0.493160       -13.4196
  39   2.0000      -0.475266       -12.9327
  40   2.0000      -0.454356       -12.3637
  41   2.0000      -0.438903       -11.9432
  42   2.0000      -0.431945       -11.7538
  43   2.0000      -0.424515       -11.5516
  44   2.0000      -0.420962       -11.4550
  45   2.0000      -0.419174       -11.4063
  46   2.0000      -0.403328       -10.9751
  47   2.0000      -0.396060       -10.7773
  48   2.0000      -0.394292       -10.7292
  49   2.0000      -0.384830       -10.4718
  50   2.0000      -0.379654       -10.3309
  51   2.0000      -0.370037       -10.0692
  52   2.0000      -0.363892        -9.9020
  53   2.0000      -0.355171        -9.6647
  54   2.0000      -0.351185        -9.5562
  55   2.0000      -0.346872        -9.4389
  56   2.0000      -0.334159        -9.0929
  57   2.0000      -0.327543        -8.9129
  58   2.0000      -0.319336        -8.6896
  59   2.0000      -0.313604        -8.5336
  60   2.0000      -0.304927        -8.2975
  61   2.0000      -0.294863        -8.0236
  62   2.0000      -0.279273        -7.5994
  63   2.0000      -0.245862        -6.6902
  64   2.0000      -0.241273        -6.5654
  65   2.0000      -0.237465        -6.4617
  66   2.0000      -0.236487        -6.4351
  67   2.0000      -0.214251        -5.8301
  68   2.0000      -0.201478        -5.4825
  69   2.0000      -0.182474        -4.9654
  70   0.0000      -0.121823        -3.3150
  71   0.0000      -0.075126        -2.0443
  72   0.0000      -0.047774        -1.3000
  73   0.0000      -0.028180        -0.7668
  74   0.0000       0.007428         0.2021

MULLIKEN ATOMIC CHARGES
-----------------------
   0 C :   -0.021475
   1 C :   -0.016690
   2 C :   -0.133588
   3 C :    0.052092
   4 C :    0.038179
   5 C :   -0.126308
   6 C :    0.084634
   7 O :   -0.152922
   8 C :    0.019807
   9 C :   -0.138912
  10 C :   -0.013709
  11 C :   -0.154203
  12 C :    0.110583
  13 C :    0.048333
  14 C :    0.073499
  15 O :   -0.223908
  16 N :   -0.228388
  17 C :   -0.084327
  18 C :    0.000800
  19 O :   -0.420786
  20 H :    0.061341
  21 H :    0.060892
  22 H :    0.057508
  23 H :    0.057389
  24 H :    0.054064
  25 H :    0.055277
  26 H :    0.013984
  27 H :    0.244431
  28 H :    0.102836
  29 H :    0.098769
  30 H :    0.083262
  31 H :    0.099200
  32 H :    0.298337
Sum of atomic charges:    0.0000000

LOEWDIN ATOMIC CHARGES
----------------------
   0 C :   -0.108679
   1 C :   -0.105884
   2 C :   -0.089129
   3 C :   -0.043905
   4 C :   -0.053068
   5 C :   -0.083579
   6 C :    0.058244
   7 O :   -0.133550
   8 C :   -0.044694
   9 C :   -0.110482
  10 C :   -0.100120
  11 C :   -0.139978
  12 C :    0.039581
  13 C :   -0.090665
  14 C :    0.057253
  15 O :   -0.181136
  16 N :   -0.125973
  17 C :   -0.178280
  18 C :   -0.132789
  19 O :   -0.327624
  20 H :    0.128165
  21 H :    0.127977
  22 H :    0.134441
  23 H :    0.135451
  24 H :    0.134440
  25 H :    0.128022
  26 H :    0.117924
  27 H :    0.241100
  28 H :    0.116285
  29 H :    0.127082
  30 H :    0.100193
  31 H :    0.119351
  32 H :    0.284024

  Mayer bond orders larger than 0.100000
B(  0-C ,  1-C ) :   1.3264 B(  0-C ,  5-C ) :   1.3371 B(  0-C , 20-H ) :   0.9669
B(  1-C ,  2-C ) :   1.3365 B(  1-C , 21-H ) :   0.9665 B(  2-C ,  3-C ) :   1.3811
B(  2-C , 22-H ) :   0.9541 B(  3-C ,  4-C ) :   1.3358 B(  3-C , 14-C ) :   0.9821
B(  4-C ,  5-C ) :   1.3779 B(  4-C ,  6-C ) :   0.9562 B(  5-C , 23-H ) :   0.9568
B(  6-C ,  7-O ) :   2.1531 B(  6-C ,  8-C ) :   0.9514 B(  8-C ,  9-C ) :   1.4337
B(  8-C , 13-C ) :   1.2960 B(  9-C , 10-C ) :   1.2266 B(  9-C , 24-H ) :   0.9561
B( 10-C , 11-C ) :   1.4029 B( 10-C , 25-H ) :   0.9651 B( 11-C , 12-C ) :   1.2393
B( 11-C , 26-H ) :   0.9523 B( 12-C , 13-C ) :   1.2167 B( 12-C , 16-N ) :   1.3759
B( 13-C , 14-C ) :   1.0302 B( 14-C , 15-O ) :   1.9506 B( 15-O , 27-H ) :   0.1502
B( 16-N , 17-C ) :   1.0524 B( 16-N , 27-H ) :   0.7624 B( 17-C , 18-C ) :   1.0687
B( 17-C , 28-H ) :   0.9058 B( 17-C , 29-H ) :   0.9142 B( 18-C , 19-O ) :   1.0888
B( 18-C , 30-H ) :   0.9214 B( 18-C , 31-H ) :   0.9234 B( 19-O , 32-H ) :   0.8490

Dispersion correction           -0.047053405
FINAL SINGLE POINT ENERGY      -896.121423851568

DIPOLE MOMENT
-------------

Method             : SCF
Type of density    : Electron Density
Multiplicity       :   1
Irrep              :   0
Energy             :  -896.2179656622877246 Eh
Relativity type    :
Basis              : AO
                                X                 Y                 Z
Electronic contribution:    -11.167934148       3.628585130      -0.931968517
Nuclear contribution   :     12.755360390      -4.133406405       0.678397189
                        -----------------------------------------
Total Dipole Moment    :      1.587426242      -0.504821275      -0.253571327
                        -----------------------------------------
Magnitude (a.u.)       :      1.684952525
Magnitude (Debye)      :      4.282808958

Rotational constants in cm-1:             0.021286             0.007928             0.006176
Rotational constants in MHz :           638.147567           237.671279           185.157401

                             ****ORCA TERMINATED NORMALLY****
TOTAL RUN TIME: 0 days 0 hours 0 minutes 34 seconds 516 msec
