                         Program Version 6.0.0  -   RELEASE  -
|  1> ! pbe def2-sv(p) def2/J RI DEFGRID1 loosescf d4 GCP(DFT/SV(P)) printgap
|  2> %output
|  3>     printlevel normal
|  4> end
|  5> * xyz 0 1
|  6> C 2.0133314001 -0.6361240246 -0.1784030997
|  7> C 1.1177967943 0.3173119495 0.6058715793
|  8> C 0.0006317382 0.932503548 -0.2404287234
|  9> C -1.0906032519 -0.0516487875 -0.6664131921
| 10> N -1.943076706 -0.4081755716 0.4622625926
| 11> H 2.4455763424 -0.1283285301 -1.0377847764
| 12> H 2.8232542326 -0.9957897469 0.4517990923
| 13> H 1.4559341644 -1.4983711454 -0.5359030292
| 14> H 0.6872645953 -0.204655701 1.4625510084
| 15> H 1.7323691108 1.1301291599 0.9987571625
| 16> H -0.4790538316 1.7296423912 0.3292120877
| 17> H 0.439658409 1.3719224754 -1.1382076651
| 18> H -0.6309835631 -0.9278447118 -1.1524657466
| 19> H -1.7306282189 0.4362105218 -1.4076374883
| 20> H -1.3950558656 -0.8942348257 1.1642652159
| 21> H -2.6697366975 -1.0440811342 0.1540150746
| 22> *
| 23>
| 24>                          ****END OF INPUT****

CARTESIAN COORDINATES (ANGSTROEM)
---------------------------------
  C      2.013331   -0.636124   -0.178403
  C      1.117797    0.317312    0.605872
  C      0.000632    0.932504   -0.240429
  C     -1.090603   -0.051649   -0.666413
  N     -1.943077   -0.408176    0.462263
  H      2.445576   -0.128329   -1.037785
  H      2.823254   -0.995790    0.451799
  H      1.455934   -1.498371   -0.535903
  H      0.687265   -0.204656    1.462551
  H      1.732369    1.130129    0.998757
  H     -0.479054    1.729642    0.329212
  H      0.439658    1.371922   -1.138208
  H     -0.630984   -0.927845   -1.152466
  H     -1.730628    0.436211   -1.407637
  H     -1.395056   -0.894235    1.164265
  H     -2.669737   -1.044081    0.154015

 Total Charge           Charge          ....    0
 Multiplicity           Mult            ....    1
 Number of Electrons    NEL             ....   42
 Basis Dimension        Dim             ....   92

ORBITAL ENERGIES
----------------

  NO   OCC          E(Eh)            E(eV)
   0   2.0000     -13.953142      -379.6843
   1   2.0000      -9.902131      -269.4507
   2   2.0000      -9.882860      -268.9263
   3   2.0000      -9.875924      -268.7376
   4   2.0000      -9.872800      -268.6525
   5   2.0000      -0.790055       -21.4985
   6   2.0000      -0.704052       -19.1582
   7   2.0000      -0.628495       -17.1022
   8   2.0000      -0.560620       -15.2552
   9   2.0000      -0.495057       -13.4712
  10   2.0000      -0.444037       -12.0828
  11   2.0000      -0.418870       -11.3980
  12   2.0000      -0.390261       -10.6195
  13   2.0000      -0.378490       -10.2992
  14   2.0000      -0.349744        -9.5170
  15   2.0000      -0.332125        -9.0376
  16   2.0000      -0.322859        -8.7854
  17   2.0000      -0.288135        -7.8406
  18   2.0000      -0.281265        -7.6536
  19   2.0000      -0.277515        -7.5516
  20   2.0000      -0.178315        -4.8522
  21   0.0000       0.026982         0.7342
  22   0.0000       0.059581         1.6213
  23   0.0000       0.067113         1.8262
  24   0.0000       0.074542         2.0284
  25   0.0000       0.100729         2.7410

MULLIKEN ATOMIC CHARGES
-----------------------
   0 C :   -0.289506
   1 C :   -0.195385
   2 C :   -0.157852
   3 C :   -0.080421
   4 N :   -0.467460
   5 H :    0.098205
   6 H :    0.102247
   7 H :    0.104604
   8 H :    0.083078
   9 H :    0.089020
  10 H :    0.088886
  11 H :    0.078242
  12 H :    0.066031
  13 H :    0.078961
  14 H :    0.199354
  15 H :    0.201996
Sum of atomic charges:    0.0000000

LOEWDIN ATOMIC CHARGES
----------------------
   0 C :   -0.343986
   1 C :   -0.237291
   2 C :   -0.235944
   3 C :   -0.177361
   4 N :   -0.419689
   5 H :    0.117353
   6 H :    0.119068
   7 H :    0.114616
   8 H :    0.110019
   9 H :    0.117957
  10 H :    0.120494
  11 H :    0.115001
  12 H :    0.087259
  13 H :    0.111464
  14 H :    0.197526
  15 H :    0.203514

  Mayer bond orders larger than 0.100000
B(  0-C ,  1-C ) :   1.1493 B(  0-C ,  5-H ) :   0.9545 B(  0-C ,  6-H ) :   0.9513
B(  0-C ,  7-H ) :   0.9514 B(  1-C ,  2-C ) :   1.1247 B(  1-C ,  8-H ) :   0.9244
B(  1-C ,  9-H ) :   0.9273 B(  2-C ,  3-C ) :   1.1236 B(  2-C , 10-H ) :   0.9144
B(  2-C , 11-H ) :   0.9211 B(  3-C ,  4-N ) :   1.1061 B(  3-C , 12-H ) :   0.9144
B(  3-C , 13-H ) :   0.9269 B(  4-N , 14-H ) :   0.9010 B(  4-N , 15-H ) :   0.9038

Dispersion correction           -0.010440266
FINAL SINGLE POINT ENERGY      -213.243599610634

DIPOLE MOMENT
-------------

Method             : SCF
Type of density    : Electron Density
Multiplicity       :   1
Irrep              :   0
Energy             :  -213.3037710795898363 Eh
Relativity type    :
Basis              : AO
                                X                 Y                 Z
Electronic contribution:     -2.348690483       0.506275608       0.537251624
Nuclear contribution   :      2.502342737      -0.964223185      -0.664881840
                        -----------------------------------------
Total Dipole Moment    :      0.153652254      -0.457947577      -0.127630216
                        -----------------------------------------
Magnitude (a.u.)       :      0.499614321
Magnitude (Debye)      :      1.269918683

Rotational constants in cm-1:             0.300769             0.089735             0.086302
Rotational constants in MHz :          9016.838889          2690.200883          2587.260789

                             ****ORCA TERMINATED NORMALLY****
TOTAL RUN TIME: 0 days 0 hours 0 minutes 7 seconds 551 msec
