                         Program Version 6.0.0  -   RELEASE  -
|  1> ! r2scan-3c def2/J RI DEFGRID2 scfconv6 printgap
|  2> %output
|  3>     printlevel normal
|  4> end
|  5> * xyz 0 1
|  6> C -3.539365821 -1.1816506872 -1.3735009625
|  7> C -3.1367632123 -0.64863684 0.002901367
|  8> H -3.5611440728 -1.2941692485 0.7778833691
|  9> C -1.6271815496 -0.6250102663 0.1466466976
| 10> C -0.9849209337 -1.573390066 0.9638510419
| 11> C 0.3770587385 -1.5903243103 1.0787597152
| 12> C 1.1741442066 -0.6562895897 0.3862121488
| 13> C 2.5807027497 -0.6564163344 0.4931227977
| 14> C 3.3283901402 0.264951262 -0.1963794901
| 15> C 2.6853155326 1.2216283858 -1.0180481235
| 16> C 1.3290620012 1.2384679325 -1.1335643781
| 17> C 0.5313361543 0.3025251379 -0.4378865756
| 18> C -0.871757567 0.2928386548 -0.539579191
| 19> O 4.6876061345 0.3586288211 -0.1710589972
| 20> C 5.4129501784 -0.5597573223 0.6240691096
| 21> C -3.6420901415 0.7684818949 0.2038259011
| 22> O -3.9255808773 1.5198509194 -0.6994355935
| 23> O -3.7297489243 1.1887907961 1.4652526245
| 24> H -3.1033100881 -2.163701977 -1.532851251
| 25> H -4.6215508061 -1.2525014009 -1.4481430871
| 26> H -3.1884914471 -0.5076289513 -2.1502944001
| 27> H -1.5790210782 -2.3012961801 1.496228472
| 28> H 0.8609166815 -2.3250174644 1.7049209912
| 29> H 3.0406994168 -1.3974747731 1.1273485272
| 30> H 3.3087008053 1.9282457948 -1.5427976962
| 31> H 0.8427713241 1.9704389404 -1.7610185607
| 32> H -1.3519567492 1.0291002197 -1.1692383824
| 33> H 5.1451768017 -0.4631169893 1.6793735833
| 34> H 6.4588897226 -0.2962347518 0.4854271143
| 35> H 5.2443108746 -1.5870168791 0.2909092608
| 36> H -3.4882062495 0.5186194798 2.1294262664
| 37> *
| 38>
| 39>                          ****END OF INPUT****

CARTESIAN COORDINATES (ANGSTROEM)
---------------------------------
  C     -3.539366   -1.181651   -1.373501
  C     -3.136763   -0.648637    0.002901
  H     -3.561144   -1.294169    0.777883
  C     -1.627182   -0.625010    0.146647
  C     -0.984921   -1.573390    0.963851
  C      0.377059   -1.590324    1.078760
  C      1.174144   -0.656290    0.386212
  C      2.580703   -0.656416    0.493123
  C      3.328390    0.264951   -0.196379
  C      2.685316    1.221628   -1.018048
  C      1.329062    1.238468   -1.133564
  C      0.531336    0.302525   -0.437887
  C     -0.871758    0.292839   -0.539579
  O      4.687606    0.358629   -0.171059
  C      5.412950   -0.559757    0.624069
  C     -3.642090    0.768482    0.203826
  O     -3.925581    1.519851   -0.699436
  O     -3.729749    1.188791    1.465253
  H     -3.103310   -2.163702   -1.532851
  H     -4.621551   -1.252501   -1.448143
  H     -3.188491   -0.507629   -2.150294
  H     -1.579021   -2.301296    1.496228
  H      0.860917   -2.325017    1.704921
  H      3.040699   -1.397475    1.127349
  H      3.308701    1.928246   -1.542798
  H      0.842771    1.970439   -1.761019
  H     -1.351957    1.029100   -1.169238
  H      5.145177   -0.463117    1.679374
  H      6.458890   -0.296235    0.485427
  H      5.244311   -1.587017    0.290909
  H     -3.488206    0.518619    2.129426

 Total Charge           Charge          ....    0
 Multiplicity           Mult            ....    1
 Number of Electrons    NEL             ....  122
 Basis Dimension        Dim             ....  408

ORBITAL ENERGIES
----------------

  NO   OCC          E(Eh)            E(eV)
   0   2.0000     -19.003583      -517.1138
   1   2.0000     -18.994065      -516.8548
   2   2.0000     -18.931883      -515.1627
   3   2.0000     -10.160806      -276.4896
   4   2.0000     -10.102946      -274.9151
   5   2.0000     -10.093020      -274.6450
   6   2.0000     -10.065782      -273.9039
   7   2.0000     -10.053743      -273.5763
   8   2.0000     -10.052780      -273.5500
   9   2.0000     -10.047819      -273.4151
  10   2.0000     -10.044225      -273.3173
  11   2.0000     -10.043874      -273.3077
  12   2.0000     -10.042417      -273.2681
  13   2.0000     -10.040747      -273.2226
  14   2.0000     -10.039375      -273.1853
  15   2.0000     -10.038143      -273.1518
  16   2.0000     -10.027720      -272.8681
  17   2.0000      -1.072555       -29.1857
  18   2.0000      -1.041486       -28.3403
  19   2.0000      -0.982650       -26.7393
  20   2.0000      -0.854754       -23.2590
  21   2.0000      -0.812481       -22.1087
  22   2.0000      -0.770638       -20.9701
  23   2.0000      -0.747432       -20.3387
  24   2.0000      -0.720681       -19.6107
  25   2.0000      -0.697094       -18.9689
  26   2.0000      -0.672741       -18.3062
  27   2.0000      -0.632336       -17.2067
  28   2.0000      -0.604399       -16.4465
  29   2.0000      -0.592778       -16.1303
  30   2.0000      -0.577166       -15.7055
  31   2.0000      -0.568479       -15.4691
  32   2.0000      -0.511557       -13.9202
  33   2.0000      -0.498045       -13.5525
  34   2.0000      -0.492962       -13.4142
  35   2.0000      -0.474828       -12.9207
  36   2.0000      -0.445375       -12.1193
  37   2.0000      -0.445070       -12.1110
  38   2.0000      -0.427919       -11.6443
  39   2.0000      -0.424980       -11.5643
  40   2.0000      -0.424115       -11.5408
  41   2.0000      -0.411693       -11.2027
  42   2.0000      -0.400095       -10.8871
  43   2.0000      -0.397409       -10.8140
  44   2.0000      -0.385440       -10.4884
  45   2.0000      -0.383108       -10.4249
  46   2.0000      -0.376941       -10.2571
  47   2.0000      -0.364395        -9.9157
  48   2.0000      -0.350730        -9.5439
  49   2.0000      -0.344133        -9.3643
  50   2.0000      -0.333878        -9.0853
  51   2.0000      -0.327280        -8.9057
  52   2.0000      -0.322899        -8.7865
  53   2.0000      -0.312756        -8.5105
  54   2.0000      -0.301494        -8.2041
  55   2.0000      -0.290712        -7.9107
  56   2.0000      -0.286356        -7.7921
  57   2.0000      -0.267600        -7.2818
  58   2.0000      -0.239199        -6.5089
  59   2.0000      -0.223939        -6.0937
  60   2.0000      -0.198252        -5.3947
  61   0.0000      -0.070585        -1.9207
  62   0.0000      -0.041515        -1.1297
  63   0.0000      -0.016951        -0.4613
  64   0.0000      -0.008706        -0.2369
  65   0.0000       0.035504         0.9661

MULLIKEN ATOMIC CHARGES
-----------------------
   0 C :   -0.493401
   1 C :   -0.178512
   2 H :    0.154285
   3 C :    0.157779
   4 C :   -0.229304
   5 C :   -0.306046
   6 C :    0.233236
   7 C :   -0.367975
   8 C :    0.365535
   9 C :   -0.315160
  10 C :   -0.257194
  11 C :    0.172443
  12 C :   -0.239438
  13 O :   -0.179017
  14 C :   -0.330984
  15 C :    0.343526
  16 O :   -0.386164
  17 O :   -0.326012
  18 H :    0.151980
  19 H :    0.152107
  20 H :    0.183195
  21 H :    0.145261
  22 H :    0.139383
  23 H :    0.144097
  24 H :    0.159164
  25 H :    0.147885
  26 H :    0.165383
  27 H :    0.153989
  28 H :    0.156992
  29 H :    0.153976
  30 H :    0.328992
Sum of atomic charges:    0.0000000

LOEWDIN ATOMIC CHARGES
----------------------
   0 C :   -0.370798
   1 C :   -0.166401
   2 H :    0.173836
   3 C :   -0.086771
   4 C :   -0.161812
   5 C :   -0.145439
   6 C :   -0.045877
   7 C :   -0.163062
   8 C :    0.192262
   9 C :   -0.116672
  10 C :   -0.128633
  11 C :   -0.060855
  12 C :   -0.115995
  13 O :   -0.679779
  14 C :   -0.053917
  15 C :    0.351090
  16 O :   -0.396947
  17 O :   -0.391533
  18 H :    0.158411
  19 H :    0.160283
  20 H :    0.174166
  21 H :    0.168800
  22 H :    0.170201
  23 H :    0.178066
  24 H :    0.183410
  25 H :    0.175091
  26 H :    0.189481
  27 H :    0.166032
  28 H :    0.181129
  29 H :    0.166050
  30 H :    0.296184

  Mayer bond orders larger than 0.100000
B(  0-C ,  1-C ) :   0.9586 B(  0-C , 18-H ) :   0.9697 B(  0-C , 19-H ) :   0.9693
B(  0-C , 20-H ) :   0.9707 B(  1-C ,  2-H ) :   1.0159 B(  1-C ,  3-C ) :   0.7407
B(  1-C , 15-C ) :   0.9358 B(  3-C ,  4-C ) :   1.2192 B(  3-C , 12-C ) :   1.5156
B(  4-C ,  5-C ) :   1.4993 B(  4-C , 21-H ) :   0.9415 B(  5-C ,  6-C ) :   1.2186
B(  5-C , 22-H ) :   0.9553 B(  6-C ,  7-C ) :   1.1794 B(  6-C , 11-C ) :   1.5170
B(  7-C ,  8-C ) :   1.4287 B(  7-C , 23-H ) :   0.9012 B(  8-C ,  9-C ) :   1.2648
B(  8-C , 13-O ) :   1.0659 B(  9-C , 10-C ) :   1.4504 B(  9-C , 24-H ) :   0.9453
B( 10-C , 11-C ) :   1.2115 B( 10-C , 25-H ) :   0.9494 B( 11-C , 12-C ) :   1.1920
B( 12-C , 26-H ) :   0.9481 B( 13-O , 14-C ) :   0.8566 B( 14-C , 27-H ) :   0.9625
B( 14-C , 28-H ) :   0.9677 B( 14-C , 29-H ) :   0.9626 B( 15-C , 16-O ) :   1.9567
B( 15-C , 17-O ) :   1.0690 B( 17-O , 30-H ) :   0.8659

Dispersion correction           -0.013158826
FINAL SINGLE POINT ENERGY      -767.443334952344

DIPOLE MOMENT
-------------

Method             : SCF
Type of density    : Electron Density
Multiplicity       :   1
Irrep              :   0
Energy             :  -767.4436559648099774 Eh
Relativity type    :
Basis              : AO
                                X                 Y                 Z
Electronic contribution:     -2.663083726       6.071529834       0.874819259
Nuclear contribution   :      3.716028067      -7.592922163       0.090593956
                        -----------------------------------------
Total Dipole Moment    :      1.052944341      -1.521392329       0.965413215
                        -----------------------------------------
Magnitude (a.u.)       :      2.086947311
Magnitude (Debye)      :      5.304598502

Rotational constants in cm-1:             0.041616             0.007289             0.006835
Rotational constants in MHz :          1247.623745           218.514657           204.918520

                             ****ORCA TERMINATED NORMALLY****
TOTAL RUN TIME: 0 days 0 hours 1 minutes 27 seconds 135 msec
