                         Program Version 6.0.0  -   RELEASE  -
|  1> ! r2scan-3c def2/J RI DEFGRID2 scfconv6 printgap
|  2> %output
|  3>     printlevel normal
|  4> end
|  5> %cpcm
|  6>     smd true
|  7>     smdsolvent "water"
|  8> end
|  9> * xyz 0 1
| 10> C -3.539365821 -1.1816506872 -1.3735009625
| 11> C -3.1367632123 -0.64863684 0.002901367
| 12> H -3.5611440728 -1.2941692485 0.7778833691
| 13> C -1.6271815496 -0.6250102663 0.1466466976
| 14> C -0.9849209337 -1.573390066 0.9638510419
| 15> C 0.3770587385 -1.5903243103 1.0787597152
| 16> C 1.1741442066 -0.6562895897 0.3862121488
| 17> C 2.5807027497 -0.6564163344 0.4931227977
| 18> C 3.3283901402 0.264951262 -0.1963794901
| 19> C 2.6853155326 1.2216283858 -1.0180481235
| 20> C 1.3290620012 1.2384679325 -1.1335643781
| 21> C 0.5313361543 0.3025251379 -0.4378865756
| 22> C -0.871757567 0.2928386548 -0.539579191
| 23> O 4.6876061345 0.3586288211 -0.1710589972
| 24> C 5.4129501784 -0.5597573223 0.6240691096
| 25> C -3.6420901415 0.7684818949 0.2038259011
| 26> O -3.9255808773 1.5198509194 -0.6994355935
| 27> O -3.7297489243 1.1887907961 1.4652526245
| 28> H -3.1033100881 -2.163701977 -1.532851251
| 29> H -4.6215508061 -1.2525014009 -1.4481430871
| 30> H -3.1884914471 -0.5076289513 -2.1502944001
| 31> H -1.5790210782 -2.3012961801 1.496228472
| 32> H 0.8609166815 -2.3250174644 1.7049209912
| 33> H 3.0406994168 -1.3974747731 1.1273485272
| 34> H 3.3087008053 1.9282457948 -1.5427976962
| 35> H 0.8427713241 1.9704389404 -1.7610185607
| 36> H -1.3519567492 1.0291002197 -1.1692383824
| 37> H 5.1451768017 -0.4631169893 1.6793735833
| 38> H 6.4588897226 -0.2962347518 0.4854271143
| 39> H 5.2443108746 -1.5870168791 0.2909092608
| 40> H -3.4882062495 0.5186194798 2.1294262664
| 41> *
| 42>
| 43>                          ****END OF INPUT****

CARTESIAN COORDINATES (ANGSTROEM)
---------------------------------
  C     -3.539366   -1.181651   -1.373501
  C     -3.136763   -0.648637    0.002901
  H     -3.561144   -1.294169    0.777883
  C     -1.627182   -0.625010    0.146647
  C     -0.984921   -1.573390    0.963851
  C      0.377059   -1.590324    1.078760
  C      1.174144   -0.656290    0.386212
  C      2.580703   -0.656416    0.493123
  C      3.328390    0.264951   -0.196379
  C      2.685316    1.221628   -1.018048
  C      1.329062    1.238468   -1.133564
  C      0.531336    0.302525   -0.437887
  C     -0.871758    0.292839   -0.539579
  O      4.687606    0.358629   -0.171059
  C      5.412950   -0.559757    0.624069
  C     -3.642090    0.768482    0.203826
  O     -3.925581    1.519851   -0.699436
  O     -3.729749    1.188791    1.465253
  H     -3.103310   -2.163702   -1.532851
  H     -4.621551   -1.252501   -1.448143
  H     -3.188491   -0.507629   -2.150294
  H     -1.579021   -2.301296    1.496228
  H      0.860917   -2.325017    1.704921
  H      3.040699   -1.397475    1.127349
  H      3.308701    1.928246   -1.542798
  H      0.842771    1.970439   -1.761019
  H     -1.351957    1.029100   -1.169238
  H      5.145177   -0.463117    1.679374
  H      6.458890   -0.296235    0.485427
  H      5.244311   -1.587017    0.290909
  H     -3.488206    0.518619    2.129426

 Total Charge           Charge          ....    0
 Multiplicity           Mult            ....    1
 Number of Electrons    NEL             ....  122
 Basis Dimension        Dim             ....  408

ORBITAL ENERGIES
----------------

  NO   OCC          E(Eh)            E(eV)
   0   2.0000     -19.003591      -517.1140
   1   2.0000     -18.990742      -516.7643
   2   2.0000     -18.948403      -515.6123
   3   2.0000     -10.171132      -276.7706
   4   2.0000     -10.099388      -274.8183
   5   2.0000     -10.073422      -274.1117
   6   2.0000     -10.056058      -273.6392
   7   2.0000     -10.049124      -273.4506
   8   2.0000     -10.049028      -273.4479
   9   2.0000     -10.045290      -273.3462
  10   2.0000     -10.039816      -273.1973
  11   2.0000     -10.037209      -273.1263
  12   2.0000     -10.035557      -273.0814
  13   2.0000     -10.035482      -273.0794
  14   2.0000     -10.034778      -273.0602
  15   2.0000     -10.031996      -272.9845
  16   2.0000     -10.020127      -272.6615
  17   2.0000      -1.077731       -29.3266
  18   2.0000      -1.037357       -28.2279
  19   2.0000      -0.994471       -27.0609
  20   2.0000      -0.851545       -23.1717
  21   2.0000      -0.807745       -21.9799
  22   2.0000      -0.765211       -20.8225
  23   2.0000      -0.742926       -20.2160
  24   2.0000      -0.714173       -19.4336
  25   2.0000      -0.690975       -18.8024
  26   2.0000      -0.663204       -18.0467
  27   2.0000      -0.627474       -17.0744
  28   2.0000      -0.597983       -16.2719
  29   2.0000      -0.589287       -16.0353
  30   2.0000      -0.571255       -15.5446
  31   2.0000      -0.562366       -15.3028
  32   2.0000      -0.503690       -13.7061
  33   2.0000      -0.492918       -13.4130
  34   2.0000      -0.486365       -13.2347
  35   2.0000      -0.469321       -12.7709
  36   2.0000      -0.438995       -11.9457
  37   2.0000      -0.436840       -11.8870
  38   2.0000      -0.434210       -11.8155
  39   2.0000      -0.425735       -11.5848
  40   2.0000      -0.416007       -11.3201
  41   2.0000      -0.408171       -11.1069
  42   2.0000      -0.398311       -10.8386
  43   2.0000      -0.392063       -10.6686
  44   2.0000      -0.382880       -10.4187
  45   2.0000      -0.375528       -10.2186
  46   2.0000      -0.374506       -10.1908
  47   2.0000      -0.358351        -9.7512
  48   2.0000      -0.342908        -9.3310
  49   2.0000      -0.337653        -9.1880
  50   2.0000      -0.329764        -8.9733
  51   2.0000      -0.323543        -8.8041
  52   2.0000      -0.314881        -8.5683
  53   2.0000      -0.308405        -8.3921
  54   2.0000      -0.302102        -8.2206
  55   2.0000      -0.294621        -8.0170
  56   2.0000      -0.283268        -7.7081
  57   2.0000      -0.266779        -7.2594
  58   2.0000      -0.254135        -6.9154
  59   2.0000      -0.222019        -6.0415
  60   2.0000      -0.195948        -5.3320
  61   0.0000      -0.067471        -1.8360
  62   0.0000      -0.041783        -1.1370
  63   0.0000      -0.021146        -0.5754
  64   0.0000      -0.006426        -0.1749
  65   0.0000       0.062096         1.6897

MULLIKEN ATOMIC CHARGES
-----------------------
   0 C :   -0.555904
   1 C :   -0.079840
   2 H :    0.196263
   3 C :    0.119644
   4 C :   -0.228983
   5 C :   -0.330311
   6 C :    0.174581
   7 C :   -0.343637
   8 C :    0.349120
   9 C :   -0.349852
  10 C :   -0.295522
  11 C :    0.118843
  12 C :   -0.243096
  13 O :   -0.220359
  14 C :   -0.339067
  15 C :    0.342567
  16 O :   -0.474450
  17 O :   -0.366553
  18 H :    0.171448
  19 H :    0.170953
  20 H :    0.181676
  21 H :    0.179481
  22 H :    0.174821
  23 H :    0.184893
  24 H :    0.185808
  25 H :    0.181004
  26 H :    0.185205
  27 H :    0.172253
  28 H :    0.174790
  29 H :    0.172244
  30 H :    0.391979
Sum of atomic charges:    0.0000000

LOEWDIN ATOMIC CHARGES
----------------------
   0 C :   -0.378728
   1 C :   -0.153327
   2 H :    0.196991
   3 C :   -0.083039
   4 C :   -0.153376
   5 C :   -0.151155
   6 C :   -0.060849
   7 C :   -0.161177
   8 C :    0.179903
   9 C :   -0.130166
  10 C :   -0.138248
  11 C :   -0.076315
  12 C :   -0.129969
  13 O :   -0.705901
  14 C :   -0.049888
  15 C :    0.360886
  16 O :   -0.469822
  17 O :   -0.389133
  18 H :    0.165556
  19 H :    0.164612
  20 H :    0.169613
  21 H :    0.183856
  22 H :    0.183530
  23 H :    0.193820
  24 H :    0.191441
  25 H :    0.185907
  26 H :    0.193477
  27 H :    0.175374
  28 H :    0.187672
  29 H :    0.175411
  30 H :    0.323042

  Mayer bond orders larger than 0.100000
B(  0-C ,  1-C ) :   0.9174 B(  0-C , 18-H ) :   0.9652 B(  0-C , 19-H ) :   0.9709
B(  0-C , 20-H ) :   0.9715 B(  1-C ,  2-H ) :   0.9789 B(  1-C ,  3-C ) :   0.7584
B(  1-C , 15-C ) :   0.9413 B(  3-C ,  4-C ) :   1.2316 B(  3-C , 12-C ) :   1.4676
B(  4-C ,  5-C ) :   1.4638 B(  4-C , 21-H ) :   0.9584 B(  5-C ,  6-C ) :   1.2117
B(  5-C , 22-H ) :   0.9739 B(  6-C ,  7-C ) :   1.2004 B(  6-C , 11-C ) :   1.4317
B(  7-C ,  8-C ) :   1.4189 B(  7-C , 23-H ) :   0.9071 B(  8-C ,  9-C ) :   1.2163
B(  8-C , 13-O ) :   1.0513 B(  9-C , 10-C ) :   1.4464 B(  9-C , 24-H ) :   0.9555
B( 10-C , 11-C ) :   1.2069 B( 10-C , 25-H ) :   0.9587 B( 11-C , 12-C ) :   1.2095
B( 12-C , 26-H ) :   0.9408 B( 13-O , 14-C ) :   0.8492 B( 14-C , 27-H ) :   0.9548
B( 14-C , 28-H ) :   0.9603 B( 14-C , 29-H ) :   0.9548 B( 15-C , 16-O ) :   1.8918
B( 15-C , 17-O ) :   1.1080 B( 17-O , 30-H ) :   0.8342

Dispersion correction           -0.013158826
FINAL SINGLE POINT ENERGY      -767.462648841539

DIPOLE MOMENT
-------------

Method             : SCF
Type of density    : Electron Density
Multiplicity       :   1
Irrep              :   0
Energy             :  -767.4629698540048821 Eh
Relativity type    :
Basis              : AO
                                X                 Y                 Z
Electronic contribution:     -2.628496580       5.248943533       1.560353433
Nuclear contribution   :      3.716028067      -7.592922163       0.090593956
                        -----------------------------------------
Total Dipole Moment    :      1.087531486      -2.343978630       1.650947389
                        -----------------------------------------
Magnitude (a.u.)       :      3.066363944
Magnitude (Debye)      :      7.794077739

Rotational constants in cm-1:             0.041616             0.007289             0.006835
Rotational constants in MHz :          1247.623745           218.514657           204.918520

                             ****ORCA TERMINATED NORMALLY****
TOTAL RUN TIME: 0 days 0 hours 1 minutes 46 seconds 721 msec
