                         Program Version 6.0.0  -   RELEASE  -
|  1> ! r2scan-3c def2/J RI DEFGRID2 scfconv6 printgap
|  2> %output
|  3>     printlevel normal
|  4> end
|  5> * xyz 0 1
|  6> C -2.709962756 -0.9703977633 -0.4707964719
|  7> C -2.2063428669 -0.2633216013 0.7815497145
|  8> C -1.294069602 0.9229496053 0.439700882
|  9> C -0.0285020097 0.4485064121 -0.2264382643
| 10> O 0.2589628448 0.6392117005 -1.3901530372
| 11> O 0.7387265657 -0.230100281 0.6177695428
| 12> C 1.9824316419 -0.7628609712 0.1354165613
| 13> C 3.0892216668 0.2787595796 0.197185276
| 14> H -3.3455282518 -1.8102335361 -0.2030713604
| 15> H -3.2837395738 -0.2852410019 -1.0904136052
| 16> H -1.8773710783 -1.3430449494 -1.0648519185
| 17> H -1.6528070135 -0.9651394671 1.4073028571
| 18> H -3.0561687417 0.1087802872 1.3546487382
| 19> H -1.018914202 1.4430012212 1.3572279282
| 20> H -1.8011118425 1.609516592 -0.2378365703
| 21> H 2.1934020839 -1.6055882055 0.7944053599
| 22> H 1.8393745055 -1.1098794799 -0.8926033157
| 23> H 3.1870690061 0.6616157221 1.2093909345
| 24> H 4.0268711188 -0.1743227478 -0.1076268278
| 25> H 2.8612472569 1.1038817645 -0.4739506157
| 26> *
| 27>
| 28>                          ****END OF INPUT****

CARTESIAN COORDINATES (ANGSTROEM)
---------------------------------
  C     -2.709963   -0.970398   -0.470796
  C     -2.206343   -0.263322    0.781550
  C     -1.294070    0.922950    0.439701
  C     -0.028502    0.448506   -0.226438
  O      0.258963    0.639212   -1.390153
  O      0.738727   -0.230100    0.617770
  C      1.982432   -0.762861    0.135417
  C      3.089222    0.278760    0.197185
  H     -3.345528   -1.810234   -0.203071
  H     -3.283740   -0.285241   -1.090414
  H     -1.877371   -1.343045   -1.064852
  H     -1.652807   -0.965139    1.407303
  H     -3.056169    0.108780    1.354649
  H     -1.018914    1.443001    1.357228
  H     -1.801112    1.609517   -0.237837
  H      2.193402   -1.605588    0.794405
  H      1.839375   -1.109879   -0.892603
  H      3.187069    0.661616    1.209391
  H      4.026871   -0.174323   -0.107627
  H      2.861247    1.103882   -0.473951

 Total Charge           Charge          ....    0
 Multiplicity           Mult            ....    1
 Number of Electrons    NEL             ....   64
 Basis Dimension        Dim             ....  222

ORBITAL ENERGIES
----------------

  NO   OCC          E(Eh)            E(eV)
   0   2.0000     -18.995833      -516.9029
   1   2.0000     -18.927173      -515.0346
   2   2.0000     -10.150830      -276.2181
   3   2.0000     -10.091296      -274.5981
   4   2.0000     -10.040386      -273.2128
   5   2.0000     -10.037078      -273.1228
   6   2.0000     -10.027944      -272.8742
   7   2.0000     -10.018796      -272.6253
   8   2.0000      -1.071035       -29.1444
   9   2.0000      -0.974399       -26.5147
  10   2.0000      -0.775318       -21.0975
  11   2.0000      -0.737563       -20.0701
  12   2.0000      -0.677349       -18.4316
  13   2.0000      -0.622741       -16.9457
  14   2.0000      -0.569643       -15.5008
  15   2.0000      -0.522688       -14.2231
  16   2.0000      -0.473002       -12.8710
  17   2.0000      -0.446643       -12.1538
  18   2.0000      -0.441516       -12.0143
  19   2.0000      -0.424409       -11.5487
  20   2.0000      -0.405743       -11.0408
  21   2.0000      -0.396678       -10.7942
  22   2.0000      -0.371429       -10.1071
  23   2.0000      -0.367744       -10.0068
  24   2.0000      -0.351010        -9.5515
  25   2.0000      -0.338947        -9.2232
  26   2.0000      -0.324013        -8.8168
  27   2.0000      -0.312880        -8.5139
  28   2.0000      -0.310058        -8.4371
  29   2.0000      -0.304480        -8.2853
  30   2.0000      -0.270358        -7.3568
  31   2.0000      -0.231759        -6.3065
  32   0.0000      -0.015163        -0.4126
  33   0.0000       0.073223         1.9925
  34   0.0000       0.090749         2.4694
  35   0.0000       0.114654         3.1199
  36   0.0000       0.117781         3.2050

MULLIKEN ATOMIC CHARGES
-----------------------
   0 C :   -0.482680
   1 C :   -0.233799
   2 C :   -0.311580
   3 C :    0.367345
   4 O :   -0.425984
   5 O :   -0.177743
   6 C :   -0.129510
   7 C :   -0.470834
   8 H :    0.146922
   9 H :    0.149014
  10 H :    0.158574
  11 H :    0.152894
  12 H :    0.147085
  13 H :    0.156808
  14 H :    0.167658
  15 H :    0.147481
  16 H :    0.166063
  17 H :    0.150646
  18 H :    0.146540
  19 H :    0.175100
Sum of atomic charges:    0.0000000

LOEWDIN ATOMIC CHARGES
----------------------
   0 C :   -0.415315
   1 C :   -0.291687
   2 C :   -0.230683
   3 C :    0.352022
   4 O :   -0.432372
   5 O :   -0.599152
   6 C :    0.027265
   7 C :   -0.390632
   8 H :    0.151315
   9 H :    0.153371
  10 H :    0.157534
  11 H :    0.162679
  12 H :    0.153279
  13 H :    0.178731
  14 H :    0.176854
  15 H :    0.177354
  16 H :    0.187304
  17 H :    0.156820
  18 H :    0.159002
  19 H :    0.166310

  Mayer bond orders larger than 0.100000
B(  0-C ,  1-C ) :   0.9142 B(  0-C ,  8-H ) :   0.9705 B(  0-C ,  9-H ) :   0.9778
B(  0-C , 10-H ) :   0.9704 B(  1-C ,  2-C ) :   0.8814 B(  1-C , 11-H ) :   0.9755
B(  1-C , 12-H ) :   0.9647 B(  2-C ,  3-C ) :   0.9513 B(  2-C , 13-H ) :   0.9495
B(  2-C , 14-H ) :   1.0039 B(  3-C ,  4-O ) :   1.8474 B(  3-C ,  5-O ) :   1.0355
B(  5-O ,  6-C ) :   0.8224 B(  6-C ,  7-C ) :   0.9361 B(  6-C , 15-H ) :   0.9611
B(  6-C , 16-H ) :   0.9673 B(  7-C , 17-H ) :   0.9734 B(  7-C , 18-H ) :   0.9654
B(  7-C , 19-H ) :   0.9714

Dispersion correction           -0.005185754
FINAL SINGLE POINT ENERGY      -386.235931905881

DIPOLE MOMENT
-------------

Method             : SCF
Type of density    : Electron Density
Multiplicity       :   1
Irrep              :   0
Energy             :  -386.2424519194572099 Eh
Relativity type    :
Basis              : AO
                                X                 Y                 Z
Electronic contribution:      1.886539817       1.919478212      -1.163818425
Nuclear contribution   :     -1.793688211      -2.214249411       1.914248203
                        -----------------------------------------
Total Dipole Moment    :      0.092851605      -0.294771199       0.750429778
                        -----------------------------------------
Magnitude (a.u.)       :      0.811576449
Magnitude (Debye)      :      2.062863394

Rotational constants in cm-1:             0.143866             0.035493             0.034250
Rotational constants in MHz :          4312.987973          1064.054759          1026.789341

                             ****ORCA TERMINATED NORMALLY****
TOTAL RUN TIME: 0 days 0 hours 0 minutes 31 seconds 808 msec
