                         Program Version 6.0.0  -   RELEASE  -
|  1> ! r2scan-3c def2/J RI DEFGRID2 scfconv6 printgap
|  2> %output
|  3>     printlevel normal
|  4> end
|  5> %cpcm
|  6>     smd true
|  7>     smdsolvent "water"
|  8> end
|  9> * xyz 0 1
| 10> C -2.709962756 -0.9703977633 -0.4707964719
| 11> C -2.2063428669 -0.2633216013 0.7815497145
| 12> C -1.294069602 0.9229496053 0.439700882
| 13> C -0.0285020097 0.4485064121 -0.2264382643
| 14> O 0.2589628448 0.6392117005 -1.3901530372
| 15> O 0.7387265657 -0.230100281 0.6177695428
| 16> C 1.9824316419 -0.7628609712 0.1354165613
| 17> C 3.0892216668 0.2787595796 0.197185276
| 18> H -3.3455282518 -1.8102335361 -0.2030713604
| 19> H -3.2837395738 -0.2852410019 -1.0904136052
| 20> H -1.8773710783 -1.3430449494 -1.0648519185
| 21> H -1.6528070135 -0.9651394671 1.4073028571
| 22> H -3.0561687417 0.1087802872 1.3546487382
| 23> H -1.018914202 1.4430012212 1.3572279282
| 24> H -1.8011118425 1.609516592 -0.2378365703
| 25> H 2.1934020839 -1.6055882055 0.7944053599
| 26> H 1.8393745055 -1.1098794799 -0.8926033157
| 27> H 3.1870690061 0.6616157221 1.2093909345
| 28> H 4.0268711188 -0.1743227478 -0.1076268278
| 29> H 2.8612472569 1.1038817645 -0.4739506157
| 30> *
| 31>
| 32>                          ****END OF INPUT****

CARTESIAN COORDINATES (ANGSTROEM)
---------------------------------
  C     -2.709963   -0.970398   -0.470796
  C     -2.206343   -0.263322    0.781550
  C     -1.294070    0.922950    0.439701
  C     -0.028502    0.448506   -0.226438
  O      0.258963    0.639212   -1.390153
  O      0.738727   -0.230100    0.617770
  C      1.982432   -0.762861    0.135417
  C      3.089222    0.278760    0.197185
  H     -3.345528   -1.810234   -0.203071
  H     -3.283740   -0.285241   -1.090414
  H     -1.877371   -1.343045   -1.064852
  H     -1.652807   -0.965139    1.407303
  H     -3.056169    0.108780    1.354649
  H     -1.018914    1.443001    1.357228
  H     -1.801112    1.609517   -0.237837
  H      2.193402   -1.605588    0.794405
  H      1.839375   -1.109879   -0.892603
  H      3.187069    0.661616    1.209391
  H      4.026871   -0.174323   -0.107627
  H      2.861247    1.103882   -0.473951

 Total Charge           Charge          ....    0
 Multiplicity           Mult            ....    1
 Number of Electrons    NEL             ....   64
 Basis Dimension        Dim             ....  222

ORBITAL ENERGIES
----------------

  NO   OCC          E(Eh)            E(eV)
   0   2.0000     -19.001537      -517.0581
   1   2.0000     -18.943356      -515.4749
   2   2.0000     -10.161791      -276.5164
   3   2.0000     -10.083433      -274.3842
   4   2.0000     -10.035157      -273.0705
   5   2.0000     -10.029295      -272.9110
   6   2.0000     -10.018026      -272.6044
   7   2.0000     -10.011624      -272.4301
   8   2.0000      -1.078495       -29.3473
   9   2.0000      -0.988393       -26.8955
  10   2.0000      -0.770853       -20.9760
  11   2.0000      -0.730875       -19.8881
  12   2.0000      -0.672239       -18.2926
  13   2.0000      -0.617846       -16.8124
  14   2.0000      -0.563990       -15.3469
  15   2.0000      -0.520424       -14.1614
  16   2.0000      -0.471538       -12.8312
  17   2.0000      -0.456384       -12.4189
  18   2.0000      -0.444765       -12.1027
  19   2.0000      -0.417625       -11.3642
  20   2.0000      -0.404092       -10.9959
  21   2.0000      -0.393326       -10.7029
  22   2.0000      -0.365554        -9.9472
  23   2.0000      -0.364017        -9.9054
  24   2.0000      -0.349751        -9.5172
  25   2.0000      -0.335115        -9.1189
  26   2.0000      -0.318645        -8.6708
  27   2.0000      -0.308418        -8.3925
  28   2.0000      -0.304566        -8.2877
  29   2.0000      -0.301015        -8.1910
  30   2.0000      -0.276975        -7.5369
  31   2.0000      -0.247359        -6.7310
  32   0.0000      -0.023666        -0.6440
  33   0.0000       0.077182         2.1002
  34   0.0000       0.097153         2.6437
  35   0.0000       0.122460         3.3323
  36   0.0000       0.126067         3.4305

MULLIKEN ATOMIC CHARGES
-----------------------
   0 C :   -0.531082
   1 C :   -0.223968
   2 C :   -0.333761
   3 C :    0.404150
   4 O :   -0.510150
   5 O :   -0.195140
   6 C :   -0.137512
   7 C :   -0.495048
   8 H :    0.161761
   9 H :    0.163704
  10 H :    0.162598
  11 H :    0.157049
  12 H :    0.165029
  13 H :    0.184306
  14 H :    0.178633
  15 H :    0.173969
  16 H :    0.171218
  17 H :    0.165102
  18 H :    0.170147
  19 H :    0.168994
Sum of atomic charges:    0.0000000

LOEWDIN ATOMIC CHARGES
----------------------
   0 C :   -0.423556
   1 C :   -0.288263
   2 C :   -0.228639
   3 C :    0.360933
   4 O :   -0.492578
   5 O :   -0.600398
   6 C :    0.031972
   7 C :   -0.393539
   8 H :    0.156275
   9 H :    0.156185
  10 H :    0.156295
  11 H :    0.163990
  12 H :    0.160503
  13 H :    0.189626
  14 H :    0.181137
  15 H :    0.188911
  16 H :    0.188952
  17 H :    0.161871
  18 H :    0.167693
  19 H :    0.162632

  Mayer bond orders larger than 0.100000
B(  0-C ,  1-C ) :   0.8964 B(  0-C ,  8-H ) :   0.9663 B(  0-C ,  9-H ) :   0.9770
B(  0-C , 10-H ) :   0.9701 B(  1-C ,  2-C ) :   0.8734 B(  1-C , 11-H ) :   0.9739
B(  1-C , 12-H ) :   0.9616 B(  2-C ,  3-C ) :   0.9518 B(  2-C , 13-H ) :   0.9405
B(  2-C , 14-H ) :   0.9993 B(  3-C ,  4-O ) :   1.7750 B(  3-C ,  5-O ) :   1.0630
B(  5-O ,  6-C ) :   0.8036 B(  6-C ,  7-C ) :   0.9342 B(  6-C , 15-H ) :   0.9518
B(  6-C , 16-H ) :   0.9639 B(  7-C , 17-H ) :   0.9694 B(  7-C , 18-H ) :   0.9604
B(  7-C , 19-H ) :   0.9697

Dispersion correction           -0.005185754
FINAL SINGLE POINT ENERGY      -386.241002099031

DIPOLE MOMENT
-------------

Method             : SCF
Type of density    : Electron Density
Multiplicity       :   1
Irrep              :   0
Energy             :  -386.2475221126076121 Eh
Relativity type    :
Basis              : AO
                                X                 Y                 Z
Electronic contribution:      1.885674885       1.801072068      -0.800412480
Nuclear contribution   :     -1.793688211      -2.214249411       1.914248203
                        -----------------------------------------
Total Dipole Moment    :      0.091986674      -0.413177343       1.113835723
                        -----------------------------------------
Magnitude (a.u.)       :      1.191556580
Magnitude (Debye)      :      3.028696132

Rotational constants in cm-1:             0.143866             0.035493             0.034250
Rotational constants in MHz :          4312.987973          1064.054759          1026.789341

                             ****ORCA TERMINATED NORMALLY****
TOTAL RUN TIME: 0 days 0 hours 0 minutes 37 seconds 652 msec
