                         Program Version 6.0.0  -   RELEASE  -
|  1> ! pbe def2-sv(p) def2/J RI DEFGRID1 loosescf d4 GCP(DFT/SV(P)) printgap
|  2> %output
|  3>     printlevel normal
|  4> end
|  5> * xyz 0 1
|  6> C 1.9910610639 1.0039261537 -0.8742349886
|  7> C 1.428875627 -0.3121739899 -0.3633722255
|  8> C 2.4730811285 -1.1168433319 0.3947606872
|  9> S 0.0007804701 -0.0179530763 0.7739824284
| 10> C -1.4519618813 -0.0805470545 -0.3690869789
| 11> C -2.5811174751 -0.8098523592 0.342147438
| 12> C -1.8634914432 1.3197666235 -0.792583187
| 13> H 1.2389490203 1.5619244972 -1.4265950666
| 14> H 2.3287254603 1.6130776796 -0.0389425825
| 15> H 2.8347355247 0.8140111571 -1.5346286461
| 16> H 1.0294721221 -0.9051059915 -1.1901536141
| 17> H 2.0462258633 -2.0492226484 0.7558089263
| 18> H 2.833363477 -0.5498623591 1.2500504514
| 19> H 3.3135486738 -1.3417120931 -0.2578263592
| 20> H -1.1196186918 -0.6597250685 -1.2342578434
| 21> H -3.4384862728 -0.9029734253 -0.3205487888
| 22> H -2.2605558096 -1.8029656734 0.6470684397
| 23> H -2.8811116551 -0.2580500028 1.2300490111
| 24> H -2.1348402905 1.907674116 0.0810913596
| 25> H -2.7205495172 1.2668890473 -1.4607659428
| 26> H -1.0523432965 1.8261480049 -1.3095164599
| 27> *
| 28>
| 29>                          ****END OF INPUT****

CARTESIAN COORDINATES (ANGSTROEM)
---------------------------------
  C      1.991061    1.003926   -0.874235
  C      1.428876   -0.312174   -0.363372
  C      2.473081   -1.116843    0.394761
  S      0.000780   -0.017953    0.773982
  C     -1.451962   -0.080547   -0.369087
  C     -2.581117   -0.809852    0.342147
  C     -1.863491    1.319767   -0.792583
  H      1.238949    1.561924   -1.426595
  H      2.328725    1.613078   -0.038943
  H      2.834736    0.814011   -1.534629
  H      1.029472   -0.905106   -1.190154
  H      2.046226   -2.049223    0.755809
  H      2.833363   -0.549862    1.250050
  H      3.313549   -1.341712   -0.257826
  H     -1.119619   -0.659725   -1.234258
  H     -3.438486   -0.902973   -0.320549
  H     -2.260556   -1.802966    0.647068
  H     -2.881112   -0.258050    1.230049
  H     -2.134840    1.907674    0.081091
  H     -2.720550    1.266889   -1.460766
  H     -1.052343    1.826148   -1.309516

 Total Charge           Charge          ....    0
 Multiplicity           Mult            ....    1
 Number of Electrons    NEL             ....   66
 Basis Dimension        Dim             ....  130

ORBITAL ENERGIES
----------------

  NO   OCC          E(Eh)            E(eV)
   0   2.0000     -88.002184     -2394.6612
   1   2.0000      -9.922174      -269.9961
   2   2.0000      -9.921980      -269.9908
   3   2.0000      -9.878095      -268.7966
   4   2.0000      -9.877748      -268.7872
   5   2.0000      -9.876670      -268.7578
   6   2.0000      -9.876464      -268.7523
   7   2.0000      -7.646165      -208.0627
   8   2.0000      -5.674684      -154.4160
   9   2.0000      -5.670963      -154.3148
  10   2.0000      -5.662462      -154.0834
  11   2.0000      -0.747546       -20.3418
  12   2.0000      -0.714059       -19.4305
  13   2.0000      -0.617763       -16.8102
  14   2.0000      -0.614412       -16.7190
  15   2.0000      -0.613902       -16.7051
  16   2.0000      -0.514469       -13.9994
  17   2.0000      -0.495996       -13.4967
  18   2.0000      -0.426431       -11.6038
  19   2.0000      -0.413853       -11.2615
  20   2.0000      -0.390856       -10.6357
  21   2.0000      -0.377936       -10.2842
  22   2.0000      -0.366001        -9.9594
  23   2.0000      -0.359031        -9.7697
  24   2.0000      -0.344687        -9.3794
  25   2.0000      -0.343098        -9.3362
  26   2.0000      -0.321483        -8.7480
  27   2.0000      -0.309594        -8.4245
  28   2.0000      -0.302249        -8.2246
  29   2.0000      -0.296831        -8.0772
  30   2.0000      -0.280013        -7.6195
  31   2.0000      -0.253082        -6.8867
  32   2.0000      -0.174752        -4.7553
  33   0.0000       0.011923         0.3244
  34   0.0000       0.027825         0.7572
  35   0.0000       0.039665         1.0793
  36   0.0000       0.066475         1.8089
  37   0.0000       0.069596         1.8938

MULLIKEN ATOMIC CHARGES
-----------------------
   0 C :   -0.206091
   1 C :   -0.297586
   2 C :   -0.219861
   3 S :   -0.044874
   4 C :   -0.294271
   5 C :   -0.218542
   6 C :   -0.206420
   7 H :    0.111932
   8 H :    0.103385
   9 H :    0.095483
  10 H :    0.111676
  11 H :    0.110735
  12 H :    0.107576
  13 H :    0.104698
  14 H :    0.110293
  15 H :    0.104154
  16 H :    0.110028
  17 H :    0.107168
  18 H :    0.103262
  19 H :    0.096109
  20 H :    0.111146
Sum of atomic charges:    0.0000000

LOEWDIN ATOMIC CHARGES
----------------------
   0 C :   -0.347613
   1 C :   -0.244372
   2 C :   -0.346073
   3 S :    0.202026
   4 C :   -0.244465
   5 C :   -0.346155
   6 C :   -0.347247
   7 H :    0.117263
   8 H :    0.121108
   9 H :    0.117172
  10 H :    0.117386
  11 H :    0.121191
  12 H :    0.121501
  13 H :    0.121670
  14 H :    0.117686
  15 H :    0.121118
  16 H :    0.120862
  17 H :    0.121327
  18 H :    0.120992
  19 H :    0.117257
  20 H :    0.117367

  Mayer bond orders larger than 0.100000
B(  0-C ,  1-C ) :   1.0807 B(  0-C ,  7-H ) :   0.9435 B(  0-C ,  8-H ) :   0.9484
B(  0-C ,  9-H ) :   0.9360 B(  1-C ,  2-C ) :   1.0949 B(  1-C ,  3-S ) :   1.0187
B(  1-C , 10-H ) :   0.8999 B(  2-C , 11-H ) :   0.9480 B(  2-C , 12-H ) :   0.9490
B(  2-C , 13-H ) :   0.9447 B(  3-S ,  4-C ) :   1.0150 B(  4-C ,  5-C ) :   1.0930
B(  4-C ,  6-C ) :   1.0826 B(  4-C , 14-H ) :   0.8991 B(  5-C , 15-H ) :   0.9443
B(  5-C , 16-H ) :   0.9482 B(  5-C , 17-H ) :   0.9493 B(  6-C , 18-H ) :   0.9483
B(  6-C , 19-H ) :   0.9369 B(  6-C , 20-H ) :   0.9434

Dispersion correction           -0.018386071
FINAL SINGLE POINT ENERGY      -634.346168037290

DIPOLE MOMENT
-------------

Method             : SCF
Type of density    : Electron Density
Multiplicity       :   1
Irrep              :   0
Energy             :  -634.4130234538240529 Eh
Relativity type    :
Basis              : AO
                                X                 Y                 Z
Electronic contribution:     -0.020968520      -0.606021605       3.942461673
Nuclear contribution   :      0.016409004       0.488466310      -4.534200086
                        -----------------------------------------
Total Dipole Moment    :     -0.004559516      -0.117555295      -0.591738414
                        -----------------------------------------
Magnitude (a.u.)       :      0.603319473
Magnitude (Debye)      :      1.533516230

Rotational constants in cm-1:             0.120663             0.041897             0.034780
Rotational constants in MHz :          3617.399126          1256.032725          1042.679023

                             ****ORCA TERMINATED NORMALLY****
TOTAL RUN TIME: 0 days 0 hours 0 minutes 9 seconds 495 msec
