                         Program Version 6.0.0  -   RELEASE  -
|  1> ! pbe def2-sv(p) def2/J RI DEFGRID1 loosescf d4 GCP(DFT/SV(P)) printgap
|  2> %output
|  3>     printlevel normal
|  4> end
|  5> * xyz 0 1
|  6> C -3.2988919577 -0.5771361508 0.5623057278
|  7> C -2.5170439037 -0.2652044256 -0.708915764
|  8> C -1.8035318801 1.0855804023 -0.6663148527
|  9> C -0.7202381145 1.1926690142 0.3859422185
| 10> I 0.9542514819 -0.1597826268 0.0414790146
| 11> H -2.635718619 -0.7144892114 1.4129141537
| 12> H -3.9945358861 0.2273410716 0.7910882601
| 13> H -3.866324451 -1.495194671 0.4335292163
| 14> H -3.2053541038 -0.2567944388 -1.5560924047
| 15> H -1.7861999576 -1.0569807692 -0.8896517004
| 16> H -1.3772984369 1.2958692975 -1.6499729312
| 17> H -2.5349283441 1.8690789092 -0.4466073629
| 18> H -1.089520396 0.9531475813 1.3782591025
| 19> H -0.277983245 2.1849529592 0.3921047815
| 20> *
| 21>
| 22>                          ****END OF INPUT****

CARTESIAN COORDINATES (ANGSTROEM)
---------------------------------
  C     -3.298892   -0.577136    0.562306
  C     -2.517044   -0.265204   -0.708916
  C     -1.803532    1.085580   -0.666315
  C     -0.720238    1.192669    0.385942
  I      0.954251   -0.159783    0.041479
  H     -2.635719   -0.714489    1.412914
  H     -3.994536    0.227341    0.791088
  H     -3.866324   -1.495195    0.433529
  H     -3.205354   -0.256794   -1.556092
  H     -1.786200   -1.056981   -0.889652
  H     -1.377298    1.295869   -1.649973
  H     -2.534928    1.869079   -0.446607
  H     -1.089520    0.953148    1.378259
  H     -0.277983    2.184953    0.392105

 Total Charge           Charge          ....    0
 Multiplicity           Mult            ....    1
 Number of Electrons    NEL             ....   58
 Basis Dimension        Dim             ....  100

ORBITAL ENERGIES
----------------

  NO   OCC          E(Eh)            E(eV)
   0   2.0000      -9.935206      -270.3507
   1   2.0000      -9.901765      -269.4407
   2   2.0000      -9.889729      -269.1132
   3   2.0000      -9.880250      -268.8553
   4   2.0000      -6.594546      -179.4467
   5   2.0000      -4.666198      -126.9737
   6   2.0000      -4.649643      -126.5232
   7   2.0000      -4.649355      -126.5154
   8   2.0000      -1.802267       -49.0422
   9   2.0000      -1.797969       -48.9252
  10   2.0000      -1.797722       -48.9185
  11   2.0000      -1.784366       -48.5551
  12   2.0000      -1.784357       -48.5548
  13   2.0000      -0.737656       -20.0726
  14   2.0000      -0.672974       -18.3126
  15   2.0000      -0.618784       -16.8380
  16   2.0000      -0.570030       -15.5113
  17   2.0000      -0.507370       -13.8062
  18   2.0000      -0.430272       -11.7083
  19   2.0000      -0.423861       -11.5339
  20   2.0000      -0.375288       -10.2121
  21   2.0000      -0.363754        -9.8982
  22   2.0000      -0.358741        -9.7618
  23   2.0000      -0.316900        -8.6233
  24   2.0000      -0.298146        -8.1130
  25   2.0000      -0.295906        -8.0520
  26   2.0000      -0.288696        -7.8558
  27   2.0000      -0.219073        -5.9613
  28   2.0000      -0.217269        -5.9122
  29   0.0000      -0.055762        -1.5174
  30   0.0000       0.030696         0.8353
  31   0.0000       0.061269         1.6672
  32   0.0000       0.072576         1.9749
  33   0.0000       0.083192         2.2638

MULLIKEN ATOMIC CHARGES
-----------------------
   0 C :   -0.297216
   1 C :   -0.184426
   2 C :   -0.144645
   3 C :   -0.359239
   4 I :   -0.051495
   5 H :    0.111563
   6 H :    0.097905
   7 H :    0.108753
   8 H :    0.091323
   9 H :    0.109791
  10 H :    0.107116
  11 H :    0.098463
  12 H :    0.157135
  13 H :    0.154971
Sum of atomic charges:    0.0000000

LOEWDIN ATOMIC CHARGES
----------------------
   0 C :   -0.343767
   1 C :   -0.240975
   2 C :   -0.243611
   3 C :   -0.330040
   4 I :    0.049404
   5 H :    0.118204
   6 H :    0.116140
   7 H :    0.123723
   8 H :    0.119241
   9 H :    0.118008
  10 H :    0.123893
  11 H :    0.127361
  12 H :    0.129572
  13 H :    0.132846

  Mayer bond orders larger than 0.100000
B(  0-C ,  1-C ) :   1.1479 B(  0-C ,  5-H ) :   0.9497 B(  0-C ,  6-H ) :   0.9554
B(  0-C ,  7-H ) :   0.9512 B(  1-C ,  2-C ) :   1.1221 B(  1-C ,  8-H ) :   0.9266
B(  1-C ,  9-H ) :   0.9167 B(  2-C ,  3-C ) :   1.1038 B(  2-C , 10-H ) :   0.9231
B(  2-C , 11-H ) :   0.9019 B(  3-C ,  4-I ) :   1.0337 B(  3-C , 12-H ) :   0.9158
B(  3-C , 13-H ) :   0.9230

Dispersion correction           -0.011462514
FINAL SINGLE POINT ENERGY      -455.118832086228

DIPOLE MOMENT
-------------

Method             : SCF
Type of density    : Electron Density
Multiplicity       :   1
Irrep              :   0
Energy             :  -455.1674839527640302 Eh
Relativity type    :
Basis              : AO
                                X                 Y                 Z
Electronic contribution:     88.089203660     -14.042389435       3.160030110
Nuclear contribution   :    -88.717699335      14.413729627      -3.135533806
                        -----------------------------------------
Total Dipole Moment    :     -0.628495675       0.371340192       0.024496304
                        -----------------------------------------
Magnitude (a.u.)       :      0.730411131
Magnitude (Debye)      :      1.856557552

Rotational constants in cm-1:             0.208692             0.036867             0.034747
Rotational constants in MHz :          6256.434464          1105.253356          1041.684856

                             ****ORCA TERMINATED NORMALLY****
TOTAL RUN TIME: 0 days 0 hours 0 minutes 14 seconds 196 msec
