                         Program Version 6.0.0  -   RELEASE  -
|  1> ! r2scan-3c def2/J RI DEFGRID2 scfconv6 printgap
|  2> %output
|  3>     printlevel normal
|  4> end
|  5> * xyz 0 1
|  6> C -3.4131236097 -0.988157107 0.3281247507
|  7> C -2.0687422683 -0.3285225633 0.6070356252
|  8> C -1.2976812547 -0.0684701607 -0.6960512138
|  9> C 0.0090071062 0.6023560249 -0.3711824948
| 10> O 0.1864445499 1.8038506136 -0.3420917481
| 11> O 0.9526025297 -0.2799127805 -0.0789581331
| 12> C 2.2495894985 0.2118060921 0.3000415933
| 13> C 3.2369749303 -0.9360753577 0.2130942727
| 14> H -3.9432419419 -1.1648897214 1.2599137777
| 15> H -4.0268640931 -0.3502862602 -0.3025730392
| 16> H -3.2720763301 -1.940455018 -0.1761877429
| 17> H -1.467902838 -0.972449687 1.2518858349
| 18> H -2.2217245363 0.6211808316 1.1241037014
| 19> H -1.8775204813 0.5892075223 -1.3428843667
| 20> H -1.0983705837 -1.0141133712 -1.1983061362
| 21> H 2.5171351871 1.0355315043 -0.369865669
| 22> H 2.1800959014 0.6068971795 1.3186819393
| 23> H 4.2193036329 -0.5882531505 0.5149241984
| 24> H 2.9244484568 -1.7436471015 0.8682354525
| 25> H 3.2864428551 -1.3102500738 -0.80525171
| 26> *
| 27>
| 28>                          ****END OF INPUT****

CARTESIAN COORDINATES (ANGSTROEM)
---------------------------------
  C     -3.413124   -0.988157    0.328125
  C     -2.068742   -0.328523    0.607036
  C     -1.297681   -0.068470   -0.696051
  C      0.009007    0.602356   -0.371182
  O      0.186445    1.803851   -0.342092
  O      0.952603   -0.279913   -0.078958
  C      2.249589    0.211806    0.300042
  C      3.236975   -0.936075    0.213094
  H     -3.943242   -1.164890    1.259914
  H     -4.026864   -0.350286   -0.302573
  H     -3.272076   -1.940455   -0.176188
  H     -1.467903   -0.972450    1.251886
  H     -2.221725    0.621181    1.124104
  H     -1.877520    0.589208   -1.342884
  H     -1.098371   -1.014113   -1.198306
  H      2.517135    1.035532   -0.369866
  H      2.180096    0.606897    1.318682
  H      4.219304   -0.588253    0.514924
  H      2.924448   -1.743647    0.868235
  H      3.286443   -1.310250   -0.805252

 Total Charge           Charge          ....    0
 Multiplicity           Mult            ....    1
 Number of Electrons    NEL             ....   64
 Basis Dimension        Dim             ....  222

ORBITAL ENERGIES
----------------

  NO   OCC          E(Eh)            E(eV)
   0   2.0000     -18.995656      -516.8981
   1   2.0000     -18.924799      -514.9700
   2   2.0000     -10.149062      -276.1700
   3   2.0000     -10.090941      -274.5885
   4   2.0000     -10.040046      -273.2036
   5   2.0000     -10.038761      -273.1686
   6   2.0000     -10.032039      -272.9856
   7   2.0000     -10.023617      -272.7565
   8   2.0000      -1.070665       -29.1343
   9   2.0000      -0.972008       -26.4497
  10   2.0000      -0.775623       -21.1058
  11   2.0000      -0.743081       -20.2203
  12   2.0000      -0.681109       -18.5339
  13   2.0000      -0.614132       -16.7114
  14   2.0000      -0.567906       -15.4535
  15   2.0000      -0.533932       -14.5290
  16   2.0000      -0.468849       -12.7580
  17   2.0000      -0.457369       -12.4456
  18   2.0000      -0.445165       -12.1135
  19   2.0000      -0.422758       -11.5038
  20   2.0000      -0.405633       -11.0378
  21   2.0000      -0.386065       -10.5054
  22   2.0000      -0.376527       -10.2458
  23   2.0000      -0.363024        -9.8784
  24   2.0000      -0.356984        -9.7140
  25   2.0000      -0.343179        -9.3384
  26   2.0000      -0.327058        -8.8997
  27   2.0000      -0.312272        -8.4974
  28   2.0000      -0.310185        -8.4406
  29   2.0000      -0.308032        -8.3820
  30   2.0000      -0.269651        -7.3376
  31   2.0000      -0.230485        -6.2718
  32   0.0000      -0.013045        -0.3550
  33   0.0000       0.074841         2.0365
  34   0.0000       0.095087         2.5875
  35   0.0000       0.105045         2.8584
  36   0.0000       0.121196         3.2979

MULLIKEN ATOMIC CHARGES
-----------------------
   0 C :   -0.473547
   1 C :   -0.231432
   2 C :   -0.343454
   3 C :    0.411441
   4 O :   -0.426415
   5 O :   -0.172678
   6 C :   -0.150390
   7 C :   -0.442010
   8 H :    0.150703
   9 H :    0.146519
  10 H :    0.144540
  11 H :    0.147422
  12 H :    0.154288
  13 H :    0.162281
  14 H :    0.155111
  15 H :    0.167719
  16 H :    0.148618
  17 H :    0.147002
  18 H :    0.151422
  19 H :    0.152860
Sum of atomic charges:   -0.0000000

LOEWDIN ATOMIC CHARGES
----------------------
   0 C :   -0.419597
   1 C :   -0.287736
   2 C :   -0.230183
   3 C :    0.353791
   4 O :   -0.428675
   5 O :   -0.599580
   6 C :    0.033718
   7 C :   -0.387022
   8 H :    0.153089
   9 H :    0.151558
  10 H :    0.150616
  11 H :    0.158207
  12 H :    0.160711
  13 H :    0.177091
  14 H :    0.175831
  15 H :    0.185168
  16 H :    0.175506
  17 H :    0.159458
  18 H :    0.158942
  19 H :    0.159106

  Mayer bond orders larger than 0.100000
B(  0-C ,  1-C ) :   0.8960 B(  0-C ,  8-H ) :   0.9720 B(  0-C ,  9-H ) :   0.9836
B(  0-C , 10-H ) :   0.9850 B(  1-C ,  2-C ) :   0.9283 B(  1-C , 11-H ) :   0.9629
B(  1-C , 12-H ) :   0.9589 B(  2-C ,  3-C ) :   0.9610 B(  2-C , 13-H ) :   0.9767
B(  2-C , 14-H ) :   0.9808 B(  3-C ,  4-O ) :   1.8292 B(  3-C ,  5-O ) :   1.0513
B(  5-O ,  6-C ) :   0.7999 B(  6-C ,  7-C ) :   0.9441 B(  6-C , 15-H ) :   0.9614
B(  6-C , 16-H ) :   0.9460 B(  7-C , 17-H ) :   0.9680 B(  7-C , 18-H ) :   0.9695
B(  7-C , 19-H ) :   0.9744

Dispersion correction           -0.004857292
FINAL SINGLE POINT ENERGY      -386.235391503835

DIPOLE MOMENT
-------------

Method             : SCF
Type of density    : Electron Density
Multiplicity       :   1
Irrep              :   0
Energy             :  -386.2421268052166852 Eh
Relativity type    :
Basis              : AO
                                X                 Y                 Z
Electronic contribution:      2.760897014       4.959192970      -1.836255958
Nuclear contribution   :     -2.591471223      -5.823614234       2.003944097
                        -----------------------------------------
Total Dipole Moment    :      0.169425790      -0.864421265       0.167688139
                        -----------------------------------------
Magnitude (a.u.)       :      0.896687534
Magnitude (Debye)      :      2.279198580

Rotational constants in cm-1:             0.136898             0.031199             0.027232
Rotational constants in MHz :          4104.084632           935.316974           816.402278

                             ****ORCA TERMINATED NORMALLY****
TOTAL RUN TIME: 0 days 0 hours 0 minutes 29 seconds 758 msec
