                         Program Version 6.0.0  -   RELEASE  -
|  1> ! r2scan-3c def2/J RI DEFGRID2 scfconv6 printgap
|  2> %output
|  3>     printlevel normal
|  4> end
|  5> %cpcm
|  6>     smd true
|  7>     smdsolvent "water"
|  8> end
|  9> * xyz 0 1
| 10> C -3.4131236097 -0.988157107 0.3281247507
| 11> C -2.0687422683 -0.3285225633 0.6070356252
| 12> C -1.2976812547 -0.0684701607 -0.6960512138
| 13> C 0.0090071062 0.6023560249 -0.3711824948
| 14> O 0.1864445499 1.8038506136 -0.3420917481
| 15> O 0.9526025297 -0.2799127805 -0.0789581331
| 16> C 2.2495894985 0.2118060921 0.3000415933
| 17> C 3.2369749303 -0.9360753577 0.2130942727
| 18> H -3.9432419419 -1.1648897214 1.2599137777
| 19> H -4.0268640931 -0.3502862602 -0.3025730392
| 20> H -3.2720763301 -1.940455018 -0.1761877429
| 21> H -1.467902838 -0.972449687 1.2518858349
| 22> H -2.2217245363 0.6211808316 1.1241037014
| 23> H -1.8775204813 0.5892075223 -1.3428843667
| 24> H -1.0983705837 -1.0141133712 -1.1983061362
| 25> H 2.5171351871 1.0355315043 -0.369865669
| 26> H 2.1800959014 0.6068971795 1.3186819393
| 27> H 4.2193036329 -0.5882531505 0.5149241984
| 28> H 2.9244484568 -1.7436471015 0.8682354525
| 29> H 3.2864428551 -1.3102500738 -0.80525171
| 30> *
| 31>
| 32>                          ****END OF INPUT****

CARTESIAN COORDINATES (ANGSTROEM)
---------------------------------
  C     -3.413124   -0.988157    0.328125
  C     -2.068742   -0.328523    0.607036
  C     -1.297681   -0.068470   -0.696051
  C      0.009007    0.602356   -0.371182
  O      0.186445    1.803851   -0.342092
  O      0.952603   -0.279913   -0.078958
  C      2.249589    0.211806    0.300042
  C      3.236975   -0.936075    0.213094
  H     -3.943242   -1.164890    1.259914
  H     -4.026864   -0.350286   -0.302573
  H     -3.272076   -1.940455   -0.176188
  H     -1.467903   -0.972450    1.251886
  H     -2.221725    0.621181    1.124104
  H     -1.877520    0.589208   -1.342884
  H     -1.098371   -1.014113   -1.198306
  H      2.517135    1.035532   -0.369866
  H      2.180096    0.606897    1.318682
  H      4.219304   -0.588253    0.514924
  H      2.924448   -1.743647    0.868235
  H      3.286443   -1.310250   -0.805252

 Total Charge           Charge          ....    0
 Multiplicity           Mult            ....    1
 Number of Electrons    NEL             ....   64
 Basis Dimension        Dim             ....  222

ORBITAL ENERGIES
----------------

  NO   OCC          E(Eh)            E(eV)
   0   2.0000     -19.002306      -517.0790
   1   2.0000     -18.942803      -515.4599
   2   2.0000     -10.161325      -276.5037
   3   2.0000     -10.083793      -274.3940
   4   2.0000     -10.034877      -273.0629
   5   2.0000     -10.030488      -272.9435
   6   2.0000     -10.018802      -272.6255
   7   2.0000     -10.012042      -272.4415
   8   2.0000      -1.079186       -29.3662
   9   2.0000      -0.987711       -26.8770
  10   2.0000      -0.770421       -20.9642
  11   2.0000      -0.735076       -20.0024
  12   2.0000      -0.674114       -18.3436
  13   2.0000      -0.607474       -16.5302
  14   2.0000      -0.559947       -15.2369
  15   2.0000      -0.532940       -14.5020
  16   2.0000      -0.470600       -12.8057
  17   2.0000      -0.459656       -12.5079
  18   2.0000      -0.445980       -12.1357
  19   2.0000      -0.425560       -11.5801
  20   2.0000      -0.402515       -10.9530
  21   2.0000      -0.381179       -10.3724
  22   2.0000      -0.365443        -9.9442
  23   2.0000      -0.360036        -9.7971
  24   2.0000      -0.348365        -9.4795
  25   2.0000      -0.336808        -9.1650
  26   2.0000      -0.321212        -8.7406
  27   2.0000      -0.312730        -8.5098
  28   2.0000      -0.304895        -8.2966
  29   2.0000      -0.300510        -8.1773
  30   2.0000      -0.276354        -7.5200
  31   2.0000      -0.248401        -6.7593
  32   0.0000      -0.022712        -0.6180
  33   0.0000       0.077677         2.1137
  34   0.0000       0.104362         2.8398
  35   0.0000       0.115701         3.1484
  36   0.0000       0.128351         3.4926

MULLIKEN ATOMIC CHARGES
-----------------------
   0 C :   -0.517518
   1 C :   -0.218675
   2 C :   -0.368696
   3 C :    0.455608
   4 O :   -0.515458
   5 O :   -0.186836
   6 C :   -0.151128
   7 C :   -0.489516
   8 H :    0.162443
   9 H :    0.159058
  10 H :    0.159046
  11 H :    0.157385
  12 H :    0.157668
  13 H :    0.176369
  14 H :    0.177253
  15 H :    0.171860
  16 H :    0.172203
  17 H :    0.168705
  18 H :    0.164323
  19 H :    0.165906
Sum of atomic charges:   -0.0000000

LOEWDIN ATOMIC CHARGES
----------------------
   0 C :   -0.424774
   1 C :   -0.285238
   2 C :   -0.228167
   3 C :    0.363150
   4 O :   -0.492650
   5 O :   -0.599652
   6 C :    0.036435
   7 C :   -0.389875
   8 H :    0.156428
   9 H :    0.154856
  10 H :    0.154888
  11 H :    0.161657
  12 H :    0.161397
  13 H :    0.182317
  14 H :    0.185462
  15 H :    0.187158
  16 H :    0.183501
  17 H :    0.168209
  18 H :    0.162585
  19 H :    0.162313

  Mayer bond orders larger than 0.100000
B(  0-C ,  1-C ) :   0.8881 B(  0-C ,  8-H ) :   0.9687 B(  0-C ,  9-H ) :   0.9812
B(  0-C , 10-H ) :   0.9821 B(  1-C ,  2-C ) :   0.9176 B(  1-C , 11-H ) :   0.9598
B(  1-C , 12-H ) :   0.9582 B(  2-C ,  3-C ) :   0.9570 B(  2-C , 13-H ) :   0.9757
B(  2-C , 14-H ) :   0.9698 B(  3-C ,  4-O ) :   1.7554 B(  3-C ,  5-O ) :   1.0809
B(  5-O ,  6-C ) :   0.7863 B(  6-C ,  7-C ) :   0.9446 B(  6-C , 15-H ) :   0.9554
B(  6-C , 16-H ) :   0.9371 B(  7-C , 17-H ) :   0.9616 B(  7-C , 18-H ) :   0.9666
B(  7-C , 19-H ) :   0.9729

Dispersion correction           -0.004857292
FINAL SINGLE POINT ENERGY      -386.241059796398

DIPOLE MOMENT
-------------

Method             : SCF
Type of density    : Electron Density
Multiplicity       :   1
Irrep              :   0
Energy             :  -386.2477950977799424 Eh
Relativity type    :
Basis              : AO
                                X                 Y                 Z
Electronic contribution:      2.806040094       4.615966354      -1.796152086
Nuclear contribution   :     -2.591471223      -5.823614234       2.003944097
                        -----------------------------------------
Total Dipole Moment    :      0.214568870      -1.207647881       0.207792011
                        -----------------------------------------
Magnitude (a.u.)       :      1.244038072
Magnitude (Debye)      :      3.162093483

Rotational constants in cm-1:             0.136898             0.031199             0.027232
Rotational constants in MHz :          4104.084632           935.316974           816.402278

                             ****ORCA TERMINATED NORMALLY****
TOTAL RUN TIME: 0 days 0 hours 0 minutes 36 seconds 277 msec
