                         Program Version 6.0.0  -   RELEASE  -
|  1> ! pbe def2-sv(p) def2/J RI DEFGRID1 loosescf d4 GCP(DFT/SV(P)) printgap
|  2> %output
|  3>     printlevel normal
|  4> end
|  5> * xyz 0 1
|  6> C -3.2703631143 -1.1618681049 0.3271893522
|  7> C -1.7924094102 -0.9276619414 0.0385450154
|  8> C -1.4474298362 0.558705048 0.1197341193
|  9> C -0.0031127068 0.8726347502 -0.1693311737
| 10> O 0.3857116625 1.9424286087 -0.5988708637
| 11> O 0.8145535271 -0.1294570556 0.1098375169
| 12> C 2.2202050768 0.0761747777 -0.1102959153
| 13> C 2.9509768467 -1.1941751787 0.2784354545
| 14> H -3.5046038503 -2.2204288258 0.257085002
| 15> H -3.5234586261 -0.8184020356 1.3270570863
| 16> H -3.8889962269 -0.6244864229 -0.3874180825
| 17> H -1.5500305779 -1.2991007757 -0.9585769117
| 18> H -1.1839757386 -1.4784033584 0.7559985752
| 19> H -1.6533413777 0.9304732703 1.1273201974
| 20> H -2.0556905851 1.1437664698 -0.5722694225
| 21> H 2.3712903042 0.3267618876 -1.1654434123
| 22> H 2.5429062486 0.9325910865 0.4909671512
| 23> H 4.014823543 -1.0608268651 0.1127691316
| 24> H 2.7764381173 -1.4183192613 1.3264519391
| 25> H 2.5956431521 -2.0261176578 -0.3220860565
| 26> *
| 27>
| 28>                          ****END OF INPUT****

CARTESIAN COORDINATES (ANGSTROEM)
---------------------------------
  C     -3.270363   -1.161868    0.327189
  C     -1.792409   -0.927662    0.038545
  C     -1.447430    0.558705    0.119734
  C     -0.003113    0.872635   -0.169331
  O      0.385712    1.942429   -0.598871
  O      0.814554   -0.129457    0.109838
  C      2.220205    0.076175   -0.110296
  C      2.950977   -1.194175    0.278435
  H     -3.504604   -2.220429    0.257085
  H     -3.523459   -0.818402    1.327057
  H     -3.888996   -0.624486   -0.387418
  H     -1.550031   -1.299101   -0.958577
  H     -1.183976   -1.478403    0.755999
  H     -1.653341    0.930473    1.127320
  H     -2.055691    1.143766   -0.572269
  H      2.371290    0.326762   -1.165443
  H      2.542906    0.932591    0.490967
  H      4.014824   -1.060827    0.112769
  H      2.776438   -1.418319    1.326452
  H      2.595643   -2.026118   -0.322086

 Total Charge           Charge          ....    0
 Multiplicity           Mult            ....    1
 Number of Electrons    NEL             ....   64
 Basis Dimension        Dim             ....  136

ORBITAL ENERGIES
----------------

  NO   OCC          E(Eh)            E(eV)
   0   2.0000     -18.797249      -511.4992
   1   2.0000     -18.727997      -509.6147
   2   2.0000     -10.000334      -272.1229
   3   2.0000      -9.946100      -270.6471
   4   2.0000      -9.895575      -269.2723
   5   2.0000      -9.889839      -269.1162
   6   2.0000      -9.888882      -269.0901
   7   2.0000      -9.878041      -268.7952
   8   2.0000      -1.004080       -27.3224
   9   2.0000      -0.903405       -24.5829
  10   2.0000      -0.729000       -19.8371
  11   2.0000      -0.698057       -18.9951
  12   2.0000      -0.638338       -17.3701
  13   2.0000      -0.578739       -15.7483
  14   2.0000      -0.534877       -14.5547
  15   2.0000      -0.507975       -13.8227
  16   2.0000      -0.449702       -12.2370
  17   2.0000      -0.438362       -11.9284
  18   2.0000      -0.424563       -11.5529
  19   2.0000      -0.399705       -10.8765
  20   2.0000      -0.380781       -10.3616
  21   2.0000      -0.368325       -10.0226
  22   2.0000      -0.359413        -9.7801
  23   2.0000      -0.347894        -9.4667
  24   2.0000      -0.342946        -9.3320
  25   2.0000      -0.322966        -8.7883
  26   2.0000      -0.312768        -8.5109
  27   2.0000      -0.306678        -8.3451
  28   2.0000      -0.296189        -8.0597
  29   2.0000      -0.288976        -7.8634
  30   2.0000      -0.254678        -6.9301
  31   2.0000      -0.210661        -5.7324
  32   0.0000      -0.016075        -0.4374
  33   0.0000       0.033915         0.9229
  34   0.0000       0.048171         1.3108
  35   0.0000       0.075677         2.0593
  36   0.0000       0.076795         2.0897

MULLIKEN ATOMIC CHARGES
-----------------------
   0 C :   -0.255574
   1 C :   -0.202631
   2 C :   -0.171699
   3 C :    0.125217
   4 O :   -0.215385
   5 O :   -0.240118
   6 C :   -0.029229
   7 C :   -0.271463
   8 H :    0.104608
   9 H :    0.096483
  10 H :    0.098807
  11 H :    0.092205
  12 H :    0.098791
  13 H :    0.114037
  14 H :    0.105740
  15 H :    0.105390
  16 H :    0.105043
  17 H :    0.111032
  18 H :    0.113970
  19 H :    0.114776
Sum of atomic charges:   -0.0000000

LOEWDIN ATOMIC CHARGES
----------------------
   0 C :   -0.339948
   1 C :   -0.235757
   2 C :   -0.246155
   3 C :    0.033058
   4 O :   -0.174945
   5 O :   -0.065281
   6 C :   -0.107881
   7 C :   -0.350991
   8 H :    0.120358
   9 H :    0.117268
  10 H :    0.117612
  11 H :    0.117832
  12 H :    0.119567
  13 H :    0.142685
  14 H :    0.136788
  15 H :    0.116591
  16 H :    0.116283
  17 H :    0.130362
  18 H :    0.126085
  19 H :    0.126468

  Mayer bond orders larger than 0.100000
B(  0-C ,  1-C ) :   1.1546 B(  0-C ,  8-H ) :   0.9534 B(  0-C ,  9-H ) :   0.9537
B(  0-C , 10-H ) :   0.9533 B(  1-C ,  2-C ) :   1.1241 B(  1-C , 11-H ) :   0.9345
B(  1-C , 12-H ) :   0.9177 B(  2-C ,  3-C ) :   1.0419 B(  2-C , 13-H ) :   0.8892
B(  2-C , 14-H ) :   0.9094 B(  3-C ,  4-O ) :   2.0530 B(  3-C ,  5-O ) :   1.2102
B(  5-O ,  6-C ) :   0.9111 B(  6-C ,  7-C ) :   1.1485 B(  6-C , 15-H ) :   0.9321
B(  6-C , 16-H ) :   0.9317 B(  7-C , 17-H ) :   0.9444 B(  7-C , 18-H ) :   0.9499
B(  7-C , 19-H ) :   0.9498

Dispersion correction           -0.014426414
FINAL SINGLE POINT ENERGY      -385.456890104028

DIPOLE MOMENT
-------------

Method             : SCF
Type of density    : Electron Density
Multiplicity       :   1
Irrep              :   0
Energy             :  -385.5320877978322756 Eh
Relativity type    :
Basis              : AO
                                X                 Y                 Z
Electronic contribution:      2.984584085       6.338673655      -1.576218397
Nuclear contribution   :     -2.852050087      -7.114903903       1.861440747
                        -----------------------------------------
Total Dipole Moment    :      0.132533998      -0.776230248       0.285222350
                        -----------------------------------------
Magnitude (a.u.)       :      0.837526386
Magnitude (Debye)      :      2.128822894

Rotational constants in cm-1:             0.110860             0.035426             0.027711
Rotational constants in MHz :          3323.506427          1062.047118           830.753975

                             ****ORCA TERMINATED NORMALLY****
TOTAL RUN TIME: 0 days 0 hours 0 minutes 11 seconds 807 msec
