                         Program Version 6.0.1  -  RELEASE   -
|  1> ! r2scan-3c def2/J RI DEFGRID2 scfconv6 printgap
|  2> %output
|  3>     printlevel normal
|  4> end
|  5> * xyz 0 1
|  6> C -3.7318536962 0.9506380522 -1.6168326435
|  7> C -3.2795211317 -0.2647667824 -0.80243929
|  8> H -3.5545920644 -1.1790537583 -1.334627296
|  9> C -1.7792228834 -0.2454916779 -0.6016208711
| 10> C -0.9626335729 -1.1818963187 -1.2234084298
| 11> C 0.4087787348 -1.1416077357 -1.0603053849
| 12> C 1.0205860469 -0.1754377325 -0.2636183172
| 13> C 0.1774698019 0.7486632233 0.3468245192
| 14> C -1.1923390877 0.7332514679 0.1899558627
| 15> F 0.7094321638 1.7417724854 1.1185660087
| 16> C 2.4819106781 -0.1476433155 -0.0945067497
| 17> C 3.0569258512 0.0397469712 1.1595905932
| 18> C 4.4324600093 0.0525014011 1.3029225848
| 19> C 5.2507142145 -0.1185076207 0.1988638299
| 20> C 4.6867124553 -0.305450723 -1.0525860248
| 21> C 3.3124153809 -0.3231283473 -1.1994997436
| 22> C -3.9253953389 -0.2534816193 0.5755667284
| 23> O -4.1649745125 0.7594113584 1.1894154624
| 24> O -4.189026542 -1.4370258884 1.1196685497
| 25> H -4.7931885966 0.8785087129 -1.8392334905
| 26> H -3.563465188 1.8625145451 -1.0506276166
| 27> H -3.1740460509 1.0021200622 -2.5472370884
| 28> H -1.3975370254 -1.9456796812 -1.8489101286
| 29> H 1.0279239803 -1.8818294341 -1.5418266843
| 30> H -1.7907711855 1.4767721585 0.6934147039
| 31> H 2.4259402495 0.1648552183 2.027123737
| 32> H 4.8655765356 0.1965947013 2.2812851665
| 33> H 6.3238171223 -0.1046723401 0.3136033102
| 34> H 5.3202632565 -0.4357800089 -1.9168192449
| 35> H 2.8753249882 -0.4519247172 -2.1781354725
| 36> H -3.9825375948 -2.2019082131 0.5520197317
| 37> *
| 38>
| 39>                          ****END OF INPUT****

CARTESIAN COORDINATES (ANGSTROEM)
---------------------------------
  C     -3.731854    0.950638   -1.616833
  C     -3.279521   -0.264767   -0.802439
  H     -3.554592   -1.179054   -1.334627
  C     -1.779223   -0.245492   -0.601621
  C     -0.962634   -1.181896   -1.223408
  C      0.408779   -1.141608   -1.060305
  C      1.020586   -0.175438   -0.263618
  C      0.177470    0.748663    0.346825
  C     -1.192339    0.733251    0.189956
  F      0.709432    1.741772    1.118566
  C      2.481911   -0.147643   -0.094507
  C      3.056926    0.039747    1.159591
  C      4.432460    0.052501    1.302923
  C      5.250714   -0.118508    0.198864
  C      4.686712   -0.305451   -1.052586
  C      3.312415   -0.323128   -1.199500
  C     -3.925395   -0.253482    0.575567
  O     -4.164975    0.759411    1.189415
  O     -4.189027   -1.437026    1.119669
  H     -4.793189    0.878509   -1.839233
  H     -3.563465    1.862515   -1.050628
  H     -3.174046    1.002120   -2.547237
  H     -1.397537   -1.945680   -1.848910
  H      1.027924   -1.881829   -1.541827
  H     -1.790771    1.476772    0.693415
  H      2.425940    0.164855    2.027124
  H      4.865577    0.196595    2.281285
  H      6.323817   -0.104672    0.313603
  H      5.320263   -0.435780   -1.916819
  H      2.875325   -0.451925   -2.178135
  H     -3.982538   -2.201908    0.552020

 Total Charge           Charge          ....    0
 Multiplicity           Mult            ....    1
 Number of Electrons    NEL             ....  128
 Basis Dimension        Dim             ....  422

ORBITAL ENERGIES
----------------

  NO   OCC          E(Eh)            E(eV)
   0   2.0000     -24.498979      -666.6511
   1   2.0000     -19.013017      -517.3705
   2   2.0000     -18.939658      -515.3743
   3   2.0000     -10.169232      -276.7189
   4   2.0000     -10.128506      -275.6107
   5   2.0000     -10.075514      -274.1687
   6   2.0000     -10.068182      -273.9692
   7   2.0000     -10.061657      -273.7916
   8   2.0000     -10.055151      -273.6146
   9   2.0000     -10.053524      -273.5703
  10   2.0000     -10.049714      -273.4666
  11   2.0000     -10.047972      -273.4192
  12   2.0000     -10.042074      -273.2587
  13   2.0000     -10.040842      -273.2252
  14   2.0000     -10.040061      -273.2039
  15   2.0000     -10.039797      -273.1968
  16   2.0000     -10.039365      -273.1850
  17   2.0000     -10.036592      -273.1096
  18   2.0000      -1.182428       -32.1755
  19   2.0000      -1.081863       -29.4390
  20   2.0000      -0.991204       -26.9720
  21   2.0000      -0.858366       -23.3573
  22   2.0000      -0.834449       -22.7065
  23   2.0000      -0.793029       -21.5794
  24   2.0000      -0.746587       -20.3157
  25   2.0000      -0.732168       -19.9233
  26   2.0000      -0.722665       -19.6647
  27   2.0000      -0.697509       -18.9802
  28   2.0000      -0.643794       -17.5185
  29   2.0000      -0.612293       -16.6613
  30   2.0000      -0.603568       -16.4239
  31   2.0000      -0.589291       -16.0354
  32   2.0000      -0.577336       -15.7101
  33   2.0000      -0.563545       -15.3348
  34   2.0000      -0.519678       -14.1412
  35   2.0000      -0.500715       -13.6252
  36   2.0000      -0.495878       -13.4935
  37   2.0000      -0.467065       -12.7095
  38   2.0000      -0.458007       -12.4630
  39   2.0000      -0.440798       -11.9947
  40   2.0000      -0.437213       -11.8972
  41   2.0000      -0.430122       -11.7042
  42   2.0000      -0.423310       -11.5188
  43   2.0000      -0.417145       -11.3511
  44   2.0000      -0.414988       -11.2924
  45   2.0000      -0.406667       -11.0660
  46   2.0000      -0.395393       -10.7592
  47   2.0000      -0.391656       -10.6575
  48   2.0000      -0.384455       -10.4616
  49   2.0000      -0.365226        -9.9383
  50   2.0000      -0.361122        -9.8266
  51   2.0000      -0.356015        -9.6876
  52   2.0000      -0.343102        -9.3363
  53   2.0000      -0.340106        -9.2548
  54   2.0000      -0.334684        -9.1072
  55   2.0000      -0.329498        -8.9661
  56   2.0000      -0.318386        -8.6637
  57   2.0000      -0.310190        -8.4407
  58   2.0000      -0.298271        -8.1164
  59   2.0000      -0.266803        -7.2601
  60   2.0000      -0.247174        -6.7259
  61   2.0000      -0.244468        -6.6523
  62   2.0000      -0.243288        -6.6202
  63   2.0000      -0.219981        -5.9860
  64   0.0000      -0.067423        -1.8347
  65   0.0000      -0.045351        -1.2341
  66   0.0000      -0.037162        -1.0112
  67   0.0000      -0.030014        -0.8167
  68   0.0000      -0.008517        -0.2318

MULLIKEN ATOMIC CHARGES
-----------------------
   0 C :   -0.496809
   1 C :   -0.123893
   2 H :    0.141382
   3 C :    0.187663
   4 C :   -0.253579
   5 C :   -0.192284
   6 C :    0.057693
   7 C :    0.313204
   8 C :   -0.336006
   9 F :   -0.237240
  10 C :    0.104496
  11 C :   -0.178962
  12 C :   -0.171289
  13 C :   -0.134945
  14 C :   -0.169393
  15 C :   -0.210403
  16 C :    0.351120
  17 O :   -0.394199
  18 O :   -0.327262
  19 H :    0.151714
  20 H :    0.187791
  21 H :    0.156199
  22 H :    0.146627
  23 H :    0.154652
  24 H :    0.196172
  25 H :    0.156319
  26 H :    0.146509
  27 H :    0.147245
  28 H :    0.145816
  29 H :    0.151744
  30 H :    0.329916
Sum of atomic charges:    0.0000000

LOEWDIN ATOMIC CHARGES
----------------------
   0 C :   -0.368085
   1 C :   -0.163635
   2 H :    0.170854
   3 C :   -0.065374
   4 C :   -0.168832
   5 C :   -0.128968
   6 C :   -0.060914
   7 C :    0.241960
   8 C :   -0.123474
   9 F :   -0.284232
  10 C :   -0.063574
  11 C :   -0.131223
  12 C :   -0.157717
  13 C :   -0.162181
  14 C :   -0.160181
  15 C :   -0.146761
  16 C :    0.356015
  17 O :   -0.399315
  18 O :   -0.385426
  19 H :    0.160263
  20 H :    0.176215
  21 H :    0.160231
  22 H :    0.169796
  23 H :    0.177815
  24 H :    0.203944
  25 H :    0.178618
  26 H :    0.168884
  27 H :    0.167586
  28 H :    0.168062
  29 H :    0.173418
  30 H :    0.296230

  Mayer bond orders larger than 0.100000
B(  0-C ,  1-C ) :   0.9443 B(  0-C , 19-H ) :   0.9681 B(  0-C , 20-H ) :   0.9659
B(  0-C , 21-H ) :   0.9712 B(  1-C ,  2-H ) :   1.0050 B(  1-C ,  3-C ) :   0.7844
B(  1-C , 16-C ) :   0.9352 B(  3-C ,  4-C ) :   1.3471 B(  3-C ,  6-C ) :   0.1074
B(  3-C ,  8-C ) :   1.3994 B(  4-C ,  5-C ) :   1.4367 B(  4-C , 22-H ) :   0.9381
B(  5-C ,  6-C ) :   1.3789 B(  5-C , 23-H ) :   0.9366 B(  6-C ,  7-C ) :   1.4402
B(  6-C , 10-C ) :   0.7819 B(  7-C ,  8-C ) :   1.4015 B(  7-C ,  9-F ) :   0.9028
B(  8-C , 24-H ) :   0.9156 B( 10-C , 11-C ) :   1.4192 B( 10-C , 15-C ) :   1.3899
B( 11-C , 12-C ) :   1.4368 B( 11-C , 25-H ) :   0.9376 B( 12-C , 13-C ) :   1.4117
B( 12-C , 26-H ) :   0.9510 B( 13-C , 14-C ) :   1.4169 B( 13-C , 27-H ) :   0.9463
B( 14-C , 15-C ) :   1.4395 B( 14-C , 28-H ) :   0.9491 B( 15-C , 29-H ) :   0.9406
B( 16-C , 17-O ) :   1.9480 B( 16-C , 18-O ) :   1.0753 B( 18-O , 30-H ) :   0.8649

Dispersion correction           -0.013485031
FINAL SINGLE POINT ENERGY      -829.571575372590

DIPOLE MOMENT
-------------

Method             : SCF
Type of density    : Electron Density
Multiplicity       :   1
Irrep              :   0
Energy             :  -829.5686679336829457 Eh
Relativity type    :
Basis              : AO
                                X                 Y                 Z
Electronic contribution:      0.620794696       2.783381089       7.499779427
Nuclear contribution   :     -0.234323515      -4.081337619      -8.873409562
                        -----------------------------------------
Total Dipole Moment    :      0.386471181      -1.297956530      -1.373630135
                        -----------------------------------------
Magnitude (a.u.)       :      1.928966272
Magnitude (Debye)      :      4.903042611

Rotational constants in cm-1:             0.038591             0.006445             0.006116
Rotational constants in MHz :          1156.942454           193.223770           183.343798

                             ****ORCA TERMINATED NORMALLY****
TOTAL RUN TIME: 0 days 0 hours 1 minutes 15 seconds 373 msec
