                         Program Version 6.0.1  -  RELEASE   -
|  1> ! r2scan-3c def2/J RI DEFGRID2 scfconv6 printgap
|  2> %output
|  3>     printlevel normal
|  4> end
|  5> %cpcm
|  6>     smd true
|  7>     smdsolvent "water"
|  8> end
|  9> * xyz 0 1
| 10> C -3.7318536962 0.9506380522 -1.6168326435
| 11> C -3.2795211317 -0.2647667824 -0.80243929
| 12> H -3.5545920644 -1.1790537583 -1.334627296
| 13> C -1.7792228834 -0.2454916779 -0.6016208711
| 14> C -0.9626335729 -1.1818963187 -1.2234084298
| 15> C 0.4087787348 -1.1416077357 -1.0603053849
| 16> C 1.0205860469 -0.1754377325 -0.2636183172
| 17> C 0.1774698019 0.7486632233 0.3468245192
| 18> C -1.1923390877 0.7332514679 0.1899558627
| 19> F 0.7094321638 1.7417724854 1.1185660087
| 20> C 2.4819106781 -0.1476433155 -0.0945067497
| 21> C 3.0569258512 0.0397469712 1.1595905932
| 22> C 4.4324600093 0.0525014011 1.3029225848
| 23> C 5.2507142145 -0.1185076207 0.1988638299
| 24> C 4.6867124553 -0.305450723 -1.0525860248
| 25> C 3.3124153809 -0.3231283473 -1.1994997436
| 26> C -3.9253953389 -0.2534816193 0.5755667284
| 27> O -4.1649745125 0.7594113584 1.1894154624
| 28> O -4.189026542 -1.4370258884 1.1196685497
| 29> H -4.7931885966 0.8785087129 -1.8392334905
| 30> H -3.563465188 1.8625145451 -1.0506276166
| 31> H -3.1740460509 1.0021200622 -2.5472370884
| 32> H -1.3975370254 -1.9456796812 -1.8489101286
| 33> H 1.0279239803 -1.8818294341 -1.5418266843
| 34> H -1.7907711855 1.4767721585 0.6934147039
| 35> H 2.4259402495 0.1648552183 2.027123737
| 36> H 4.8655765356 0.1965947013 2.2812851665
| 37> H 6.3238171223 -0.1046723401 0.3136033102
| 38> H 5.3202632565 -0.4357800089 -1.9168192449
| 39> H 2.8753249882 -0.4519247172 -2.1781354725
| 40> H -3.9825375948 -2.2019082131 0.5520197317
| 41> *
| 42>
| 43>                          ****END OF INPUT****

CARTESIAN COORDINATES (ANGSTROEM)
---------------------------------
  C     -3.731854    0.950638   -1.616833
  C     -3.279521   -0.264767   -0.802439
  H     -3.554592   -1.179054   -1.334627
  C     -1.779223   -0.245492   -0.601621
  C     -0.962634   -1.181896   -1.223408
  C      0.408779   -1.141608   -1.060305
  C      1.020586   -0.175438   -0.263618
  C      0.177470    0.748663    0.346825
  C     -1.192339    0.733251    0.189956
  F      0.709432    1.741772    1.118566
  C      2.481911   -0.147643   -0.094507
  C      3.056926    0.039747    1.159591
  C      4.432460    0.052501    1.302923
  C      5.250714   -0.118508    0.198864
  C      4.686712   -0.305451   -1.052586
  C      3.312415   -0.323128   -1.199500
  C     -3.925395   -0.253482    0.575567
  O     -4.164975    0.759411    1.189415
  O     -4.189027   -1.437026    1.119669
  H     -4.793189    0.878509   -1.839233
  H     -3.563465    1.862515   -1.050628
  H     -3.174046    1.002120   -2.547237
  H     -1.397537   -1.945680   -1.848910
  H      1.027924   -1.881829   -1.541827
  H     -1.790771    1.476772    0.693415
  H      2.425940    0.164855    2.027124
  H      4.865577    0.196595    2.281285
  H      6.323817   -0.104672    0.313603
  H      5.320263   -0.435780   -1.916819
  H      2.875325   -0.451925   -2.178135
  H     -3.982538   -2.201908    0.552020

 Total Charge           Charge          ....    0
 Multiplicity           Mult            ....    1
 Number of Electrons    NEL             ....  128
 Basis Dimension        Dim             ....  422

ORBITAL ENERGIES
----------------

  NO   OCC          E(Eh)            E(eV)
   0   2.0000     -24.502310      -666.7418
   1   2.0000     -19.005293      -517.1603
   2   2.0000     -18.949107      -515.6314
   3   2.0000     -10.173410      -276.8326
   4   2.0000     -10.125240      -275.5218
   5   2.0000     -10.060155      -273.7507
   6   2.0000     -10.059959      -273.7454
   7   2.0000     -10.056583      -273.6535
   8   2.0000     -10.052426      -273.5404
   9   2.0000     -10.044073      -273.3131
  10   2.0000     -10.042496      -273.2702
  11   2.0000     -10.037897      -273.1451
  12   2.0000     -10.036688      -273.1122
  13   2.0000     -10.036396      -273.1042
  14   2.0000     -10.035376      -273.0765
  15   2.0000     -10.035144      -273.0702
  16   2.0000     -10.034371      -273.0491
  17   2.0000     -10.022279      -272.7201
  18   2.0000      -1.186578       -32.2884
  19   2.0000      -1.079903       -29.3857
  20   2.0000      -0.996242       -27.1091
  21   2.0000      -0.852630       -23.2012
  22   2.0000      -0.830372       -22.5956
  23   2.0000      -0.784178       -21.3386
  24   2.0000      -0.739905       -20.1338
  25   2.0000      -0.725358       -19.7380
  26   2.0000      -0.718450       -19.5500
  27   2.0000      -0.690896       -18.8002
  28   2.0000      -0.633045       -17.2260
  29   2.0000      -0.604872       -16.4594
  30   2.0000      -0.597572       -16.2608
  31   2.0000      -0.580788       -15.8040
  32   2.0000      -0.571922       -15.5628
  33   2.0000      -0.558000       -15.1840
  34   2.0000      -0.515076       -14.0159
  35   2.0000      -0.492719       -13.4076
  36   2.0000      -0.489863       -13.3298
  37   2.0000      -0.461008       -12.5447
  38   2.0000      -0.450744       -12.2654
  39   2.0000      -0.439123       -11.9492
  40   2.0000      -0.438100       -11.9213
  41   2.0000      -0.433027       -11.7833
  42   2.0000      -0.419462       -11.4141
  43   2.0000      -0.411164       -11.1883
  44   2.0000      -0.406988       -11.0747
  45   2.0000      -0.402983       -10.9657
  46   2.0000      -0.388820       -10.5803
  47   2.0000      -0.385530       -10.4908
  48   2.0000      -0.377537       -10.2733
  49   2.0000      -0.361835        -9.8460
  50   2.0000      -0.356482        -9.7004
  51   2.0000      -0.349452        -9.5091
  52   2.0000      -0.336810        -9.1651
  53   2.0000      -0.329311        -8.9610
  54   2.0000      -0.327487        -8.9114
  55   2.0000      -0.320414        -8.7189
  56   2.0000      -0.311106        -8.4656
  57   2.0000      -0.304860        -8.2957
  58   2.0000      -0.302717        -8.2373
  59   2.0000      -0.265568        -7.2265
  60   2.0000      -0.254740        -6.9318
  61   2.0000      -0.242623        -6.6021
  62   2.0000      -0.239900        -6.5280
  63   2.0000      -0.217134        -5.9085
  64   0.0000      -0.063469        -1.7271
  65   0.0000      -0.039779        -1.0825
  66   0.0000      -0.035435        -0.9642
  67   0.0000      -0.029677        -0.8076
  68   0.0000      -0.005369        -0.1461

MULLIKEN ATOMIC CHARGES
-----------------------
   0 C :   -0.554542
   1 C :   -0.029537
   2 H :    0.189640
   3 C :    0.131832
   4 C :   -0.267112
   5 C :   -0.203270
   6 C :    0.070609
   7 C :    0.302239
   8 C :   -0.349780
   9 F :   -0.250178
  10 C :    0.060796
  11 C :   -0.213087
  12 C :   -0.211223
  13 C :   -0.163470
  14 C :   -0.211924
  15 C :   -0.213298
  16 C :    0.345930
  17 O :   -0.479336
  18 O :   -0.362683
  19 H :    0.173087
  20 H :    0.183033
  21 H :    0.174392
  22 H :    0.183815
  23 H :    0.186332
  24 H :    0.208226
  25 H :    0.183219
  26 H :    0.178656
  27 H :    0.180429
  28 H :    0.178844
  29 H :    0.184470
  30 H :    0.393891
Sum of atomic charges:    0.0000000

LOEWDIN ATOMIC CHARGES
----------------------
   0 C :   -0.374195
   1 C :   -0.150278
   2 H :    0.195050
   3 C :   -0.061624
   4 C :   -0.158176
   5 C :   -0.129112
   6 C :   -0.069846
   7 C :    0.231616
   8 C :   -0.134121
   9 F :   -0.299270
  10 C :   -0.074783
  11 C :   -0.146784
  12 C :   -0.168327
  13 C :   -0.171911
  14 C :   -0.167848
  15 C :   -0.149825
  16 C :    0.364269
  17 O :   -0.470874
  18 O :   -0.380854
  19 H :    0.166141
  20 H :    0.171131
  21 H :    0.166688
  22 H :    0.186102
  23 H :    0.189504
  24 H :    0.205728
  25 H :    0.185528
  26 H :    0.179348
  27 H :    0.178296
  28 H :    0.179385
  29 H :    0.185249
  30 H :    0.323792

  Mayer bond orders larger than 0.100000
B(  0-C ,  1-C ) :   0.9087 B(  0-C , 19-H ) :   0.9686 B(  0-C , 20-H ) :   0.9670
B(  0-C , 21-H ) :   0.9671 B(  1-C ,  2-H ) :   0.9722 B(  1-C ,  3-C ) :   0.7950
B(  1-C , 16-C ) :   0.9357 B(  3-C ,  4-C ) :   1.3672 B(  3-C ,  6-C ) :   0.1029
B(  3-C ,  8-C ) :   1.3656 B(  4-C ,  5-C ) :   1.4256 B(  4-C , 22-H ) :   0.9500
B(  5-C ,  6-C ) :   1.3526 B(  5-C , 23-H ) :   0.9432 B(  6-C ,  7-C ) :   1.4200
B(  6-C , 10-C ) :   0.7646 B(  7-C ,  8-C ) :   1.3891 B(  7-C ,  9-F ) :   0.8990
B(  8-C , 24-H ) :   0.9136 B( 10-C , 11-C ) :   1.3780 B( 10-C , 15-C ) :   1.3709
B( 11-C , 12-C ) :   1.4115 B( 11-C , 25-H ) :   0.9465 B( 12-C , 13-C ) :   1.3789
B( 12-C , 26-H ) :   0.9595 B( 13-C , 14-C ) :   1.3803 B( 13-C , 27-H ) :   0.9522
B( 14-C , 15-C ) :   1.4163 B( 14-C , 28-H ) :   0.9589 B( 15-C , 29-H ) :   0.9457
B( 16-C , 17-O ) :   1.8865 B( 16-C , 18-O ) :   1.1182 B( 18-O , 30-H ) :   0.8324

Dispersion correction           -0.013485031
FINAL SINGLE POINT ENERGY      -829.589644065691

DIPOLE MOMENT
-------------

Method             : SCF
Type of density    : Electron Density
Multiplicity       :   1
Irrep              :   0
Energy             :  -829.5867366267834768 Eh
Relativity type    :
Basis              : AO
                                X                 Y                 Z
Electronic contribution:      0.597768504       1.968376188       6.783564337
Nuclear contribution   :     -0.234323515      -4.081337619      -8.873409562
                        -----------------------------------------
Total Dipole Moment    :      0.363444989      -2.112961431      -2.089845224
                        -----------------------------------------
Magnitude (a.u.)       :      2.994019260
Magnitude (Debye)      :      7.610192168

Rotational constants in cm-1:             0.038591             0.006445             0.006116
Rotational constants in MHz :          1156.942454           193.223770           183.343798

                             ****ORCA TERMINATED NORMALLY****
TOTAL RUN TIME: 0 days 0 hours 1 minutes 33 seconds 752 msec
