                         Program Version 6.0.0  -   RELEASE  -
|  1> ! r2scan-3c def2/J RI DEFGRID2 scfconv6 printgap
|  2> %output
|  3>     printlevel normal
|  4> end
|  5> * xyz 0 1
|  6> C -3.6424781245 -0.6252924392 0.2423117652
|  7> C -2.3368810889 -0.2021484463 -0.4182091774
|  8> C -1.1851722 -0.1845996123 0.5830129141
|  9> C 0.1089977828 0.2660910475 -0.0413327279
| 10> O 0.2312946292 0.6992549008 -1.1671642156
| 11> O 1.1208214889 0.1445701043 0.8137775398
| 12> C 2.4356654416 0.526929687 0.3753365996
| 13> C 3.127050424 -0.6159754558 -0.352239415
| 14> H -3.9082478802 0.0653077736 1.0386918941
| 15> H -4.4474063676 -0.635415487 -0.4872216728
| 16> H -3.5493071718 -1.6219179293 0.6663875708
| 17> H -2.4424696188 0.7925966243 -0.8548486709
| 18> H -2.0914757425 -0.8867896753 -1.2321802329
| 19> H -1.0249353683 -1.1737345293 1.0150795033
| 20> H -1.4055031728 0.4970476838 1.4076131189
| 21> H 2.3454921102 1.400115483 -0.2779694836
| 22> H 2.9633771052 0.7914157381 1.2920269112
| 23> H 4.1387926717 -0.3193642255 -0.6086738778
| 24> H 3.1605860704 -1.4975513231 0.2821447274
| 25> H 2.5873078586 -0.8560659314 -1.2656181004
| 26> *
| 27>
| 28>                          ****END OF INPUT****

CARTESIAN COORDINATES (ANGSTROEM)
---------------------------------
  C     -3.642478   -0.625292    0.242312
  C     -2.336881   -0.202148   -0.418209
  C     -1.185172   -0.184600    0.583013
  C      0.108998    0.266091   -0.041333
  O      0.231295    0.699255   -1.167164
  O      1.120821    0.144570    0.813778
  C      2.435665    0.526930    0.375337
  C      3.127050   -0.615975   -0.352239
  H     -3.908248    0.065308    1.038692
  H     -4.447406   -0.635415   -0.487222
  H     -3.549307   -1.621918    0.666388
  H     -2.442470    0.792597   -0.854849
  H     -2.091476   -0.886790   -1.232180
  H     -1.024935   -1.173735    1.015080
  H     -1.405503    0.497048    1.407613
  H      2.345492    1.400115   -0.277969
  H      2.963377    0.791416    1.292027
  H      4.138793   -0.319364   -0.608674
  H      3.160586   -1.497551    0.282145
  H      2.587308   -0.856066   -1.265618

 Total Charge           Charge          ....    0
 Multiplicity           Mult            ....    1
 Number of Electrons    NEL             ....   64
 Basis Dimension        Dim             ....  222

ORBITAL ENERGIES
----------------

  NO   OCC          E(Eh)            E(eV)
   0   2.0000     -18.994106      -516.8559
   1   2.0000     -18.929006      -515.0844
   2   2.0000     -10.151781      -276.2440
   3   2.0000     -10.090221      -274.5689
   4   2.0000     -10.041817      -273.2517
   5   2.0000     -10.028358      -272.8855
   6   2.0000     -10.027850      -272.8717
   7   2.0000     -10.019268      -272.6381
   8   2.0000      -1.069481       -29.1020
   9   2.0000      -0.975770       -26.5521
  10   2.0000      -0.770854       -20.9760
  11   2.0000      -0.739282       -20.1169
  12   2.0000      -0.680209       -18.5094
  13   2.0000      -0.621727       -16.9180
  14   2.0000      -0.562043       -15.2940
  15   2.0000      -0.517797       -14.0900
  16   2.0000      -0.473751       -12.8914
  17   2.0000      -0.457513       -12.4496
  18   2.0000      -0.443903       -12.0792
  19   2.0000      -0.418419       -11.3858
  20   2.0000      -0.411543       -11.1986
  21   2.0000      -0.387390       -10.5414
  22   2.0000      -0.376357       -10.2412
  23   2.0000      -0.364717        -9.9245
  24   2.0000      -0.350974        -9.5505
  25   2.0000      -0.336986        -9.1699
  26   2.0000      -0.321370        -8.7449
  27   2.0000      -0.312388        -8.5005
  28   2.0000      -0.304974        -8.2988
  29   2.0000      -0.302511        -8.2317
  30   2.0000      -0.270086        -7.3494
  31   2.0000      -0.236628        -6.4390
  32   0.0000      -0.012337        -0.3357
  33   0.0000       0.077303         2.1035
  34   0.0000       0.089804         2.4437
  35   0.0000       0.104299         2.8381
  36   0.0000       0.123470         3.3598

MULLIKEN ATOMIC CHARGES
-----------------------
   0 C :   -0.466410
   1 C :   -0.230312
   2 C :   -0.302505
   3 C :    0.377479
   4 O :   -0.431055
   5 O :   -0.177377
   6 C :   -0.138101
   7 C :   -0.469860
   8 H :    0.140849
   9 H :    0.150416
  10 H :    0.139798
  11 H :    0.153602
  12 H :    0.145589
  13 H :    0.160894
  14 H :    0.161964
  15 H :    0.166421
  16 H :    0.147912
  17 H :    0.146517
  18 H :    0.151353
  19 H :    0.172827
Sum of atomic charges:    0.0000000

LOEWDIN ATOMIC CHARGES
----------------------
   0 C :   -0.422166
   1 C :   -0.297058
   2 C :   -0.232283
   3 C :    0.364394
   4 O :   -0.436457
   5 O :   -0.596823
   6 C :    0.026444
   7 C :   -0.391069
   8 H :    0.149659
   9 H :    0.152592
  10 H :    0.149498
  11 H :    0.163957
  12 H :    0.160420
  13 H :    0.180931
  14 H :    0.182177
  15 H :    0.187365
  16 H :    0.177408
  17 H :    0.158935
  18 H :    0.156796
  19 H :    0.165280

  Mayer bond orders larger than 0.100000
B(  0-C ,  1-C ) :   0.8767 B(  0-C ,  8-H ) :   0.9846 B(  0-C ,  9-H ) :   0.9760
B(  0-C , 10-H ) :   0.9814 B(  1-C ,  2-C ) :   0.9667 B(  1-C , 11-H ) :   0.9638
B(  1-C , 12-H ) :   0.9637 B(  2-C ,  3-C ) :   1.0029 B(  2-C , 13-H ) :   0.9515
B(  2-C , 14-H ) :   0.9414 B(  3-C ,  4-O ) :   1.8376 B(  3-C ,  5-O ) :   1.0730
B(  5-O ,  6-C ) :   0.8169 B(  6-C ,  7-C ) :   0.9366 B(  6-C , 15-H ) :   0.9687
B(  6-C , 16-H ) :   0.9619 B(  7-C , 17-H ) :   0.9649 B(  7-C , 18-H ) :   0.9739
B(  7-C , 19-H ) :   0.9720

Dispersion correction           -0.004903159
FINAL SINGLE POINT ENERGY      -386.236944835619

DIPOLE MOMENT
-------------

Method             : SCF
Type of density    : Electron Density
Multiplicity       :   1
Irrep              :   0
Energy             :  -386.2437397440312452 Eh
Relativity type    :
Basis              : AO
                                X                 Y                 Z
Electronic contribution:      3.653321957       2.964530949      -0.303258940
Nuclear contribution   :     -3.426577570      -3.218867531       0.909877449
                        -----------------------------------------
Total Dipole Moment    :      0.226744387      -0.254336581       0.606618509
                        -----------------------------------------
Magnitude (a.u.)       :      0.695762984
Magnitude (Debye)      :      1.768488961

Rotational constants in cm-1:             0.198968             0.028394             0.027180
Rotational constants in MHz :          5964.922899           851.233142           814.828784

                             ****ORCA TERMINATED NORMALLY****
TOTAL RUN TIME: 0 days 0 hours 0 minutes 33 seconds 191 msec
