                         Program Version 6.0.0  -   RELEASE  -
|  1> ! r2scan-3c def2/J RI DEFGRID2 scfconv6 printgap
|  2> %output
|  3>     printlevel normal
|  4> end
|  5> %cpcm
|  6>     smd true
|  7>     smdsolvent "water"
|  8> end
|  9> * xyz 0 1
| 10> C -3.6424781245 -0.6252924392 0.2423117652
| 11> C -2.3368810889 -0.2021484463 -0.4182091774
| 12> C -1.1851722 -0.1845996123 0.5830129141
| 13> C 0.1089977828 0.2660910475 -0.0413327279
| 14> O 0.2312946292 0.6992549008 -1.1671642156
| 15> O 1.1208214889 0.1445701043 0.8137775398
| 16> C 2.4356654416 0.526929687 0.3753365996
| 17> C 3.127050424 -0.6159754558 -0.352239415
| 18> H -3.9082478802 0.0653077736 1.0386918941
| 19> H -4.4474063676 -0.635415487 -0.4872216728
| 20> H -3.5493071718 -1.6219179293 0.6663875708
| 21> H -2.4424696188 0.7925966243 -0.8548486709
| 22> H -2.0914757425 -0.8867896753 -1.2321802329
| 23> H -1.0249353683 -1.1737345293 1.0150795033
| 24> H -1.4055031728 0.4970476838 1.4076131189
| 25> H 2.3454921102 1.400115483 -0.2779694836
| 26> H 2.9633771052 0.7914157381 1.2920269112
| 27> H 4.1387926717 -0.3193642255 -0.6086738778
| 28> H 3.1605860704 -1.4975513231 0.2821447274
| 29> H 2.5873078586 -0.8560659314 -1.2656181004
| 30> *
| 31>
| 32>                          ****END OF INPUT****

CARTESIAN COORDINATES (ANGSTROEM)
---------------------------------
  C     -3.642478   -0.625292    0.242312
  C     -2.336881   -0.202148   -0.418209
  C     -1.185172   -0.184600    0.583013
  C      0.108998    0.266091   -0.041333
  O      0.231295    0.699255   -1.167164
  O      1.120821    0.144570    0.813778
  C      2.435665    0.526930    0.375337
  C      3.127050   -0.615975   -0.352239
  H     -3.908248    0.065308    1.038692
  H     -4.447406   -0.635415   -0.487222
  H     -3.549307   -1.621918    0.666388
  H     -2.442470    0.792597   -0.854849
  H     -2.091476   -0.886790   -1.232180
  H     -1.024935   -1.173735    1.015080
  H     -1.405503    0.497048    1.407613
  H      2.345492    1.400115   -0.277969
  H      2.963377    0.791416    1.292027
  H      4.138793   -0.319364   -0.608674
  H      3.160586   -1.497551    0.282145
  H      2.587308   -0.856066   -1.265618

 Total Charge           Charge          ....    0
 Multiplicity           Mult            ....    1
 Number of Electrons    NEL             ....   64
 Basis Dimension        Dim             ....  222

ORBITAL ENERGIES
----------------

  NO   OCC          E(Eh)            E(eV)
   0   2.0000     -19.000002      -517.0163
   1   2.0000     -18.944245      -515.4991
   2   2.0000     -10.162091      -276.5246
   3   2.0000     -10.082834      -274.3679
   4   2.0000     -10.035343      -273.0756
   5   2.0000     -10.023851      -272.7628
   6   2.0000     -10.017902      -272.6010
   7   2.0000     -10.010546      -272.4008
   8   2.0000      -1.077055       -29.3081
   9   2.0000      -0.988846       -26.9079
  10   2.0000      -0.766512       -20.8579
  11   2.0000      -0.733113       -19.9490
  12   2.0000      -0.674316       -18.3491
  13   2.0000      -0.616796       -16.7839
  14   2.0000      -0.556394       -15.1402
  15   2.0000      -0.516617       -14.0579
  16   2.0000      -0.474114       -12.9013
  17   2.0000      -0.458941       -12.4884
  18   2.0000      -0.450800       -12.2669
  19   2.0000      -0.417067       -11.3490
  20   2.0000      -0.409204       -11.1350
  21   2.0000      -0.381018       -10.3680
  22   2.0000      -0.371647       -10.1130
  23   2.0000      -0.358349        -9.7512
  24   2.0000      -0.346228        -9.4213
  25   2.0000      -0.336992        -9.1700
  26   2.0000      -0.316802        -8.6206
  27   2.0000      -0.306663        -8.3447
  28   2.0000      -0.302715        -8.2373
  29   2.0000      -0.297658        -8.0997
  30   2.0000      -0.276048        -7.5116
  31   2.0000      -0.252293        -6.8652
  32   0.0000      -0.020154        -0.5484
  33   0.0000       0.080327         2.1858
  34   0.0000       0.095702         2.6042
  35   0.0000       0.113444         3.0870
  36   0.0000       0.132260         3.5990

MULLIKEN ATOMIC CHARGES
-----------------------
   0 C :   -0.515880
   1 C :   -0.249172
   2 C :   -0.305721
   3 C :    0.415658
   4 O :   -0.512469
   5 O :   -0.198256
   6 C :   -0.144705
   7 C :   -0.494812
   8 H :    0.156686
   9 H :    0.160042
  10 H :    0.155759
  11 H :    0.153463
  12 H :    0.154819
  13 H :    0.185650
  14 H :    0.190803
  15 H :    0.170940
  16 H :    0.173402
  17 H :    0.169832
  18 H :    0.165442
  19 H :    0.168516
Sum of atomic charges:    0.0000000

LOEWDIN ATOMIC CHARGES
----------------------
   0 C :   -0.426942
   1 C :   -0.300207
   2 C :   -0.229242
   3 C :    0.375842
   4 O :   -0.495108
   5 O :   -0.600807
   6 C :    0.030772
   7 C :   -0.394003
   8 H :    0.154383
   9 H :    0.154847
  10 H :    0.154377
  11 H :    0.161328
  12 H :    0.160400
  13 H :    0.191643
  14 H :    0.193810
  15 H :    0.188760
  16 H :    0.188539
  17 H :    0.167496
  18 H :    0.161783
  19 H :    0.162331

  Mayer bond orders larger than 0.100000
B(  0-C ,  1-C ) :   0.8793 B(  0-C ,  8-H ) :   0.9817 B(  0-C ,  9-H ) :   0.9729
B(  0-C , 10-H ) :   0.9791 B(  1-C ,  2-C ) :   0.9425 B(  1-C , 11-H ) :   0.9651
B(  1-C , 12-H ) :   0.9665 B(  2-C ,  3-C ) :   1.0118 B(  2-C , 13-H ) :   0.9383
B(  2-C , 14-H ) :   0.9274 B(  3-C ,  4-O ) :   1.7758 B(  3-C ,  5-O ) :   1.0944
B(  5-O ,  6-C ) :   0.7982 B(  6-C ,  7-C ) :   0.9359 B(  6-C , 15-H ) :   0.9648
B(  6-C , 16-H ) :   0.9525 B(  7-C , 17-H ) :   0.9601 B(  7-C , 18-H ) :   0.9698
B(  7-C , 19-H ) :   0.9698

Dispersion correction           -0.004903159
FINAL SINGLE POINT ENERGY      -386.241833679137

DIPOLE MOMENT
-------------

Method             : SCF
Type of density    : Electron Density
Multiplicity       :   1
Irrep              :   0
Energy             :  -386.2486285875488079 Eh
Relativity type    :
Basis              : AO
                                X                 Y                 Z
Electronic contribution:      3.723536972       2.848869909       0.058199216
Nuclear contribution   :     -3.426577570      -3.218867531       0.909877449
                        -----------------------------------------
Total Dipole Moment    :      0.296959402      -0.369997622       0.968076666
                        -----------------------------------------
Magnitude (a.u.)       :      1.078079569
Magnitude (Debye)      :      2.740260493

Rotational constants in cm-1:             0.198968             0.028394             0.027180
Rotational constants in MHz :          5964.922899           851.233142           814.828784

                             ****ORCA TERMINATED NORMALLY****
TOTAL RUN TIME: 0 days 0 hours 0 minutes 39 seconds 409 msec
