                         Program Version 6.0.0  -   RELEASE  -
|  1> ! r2scan-3c def2/J RI DEFGRID2 scfconv6 printgap
|  2> %output
|  3>     printlevel normal
|  4> end
|  5> * xyz 0 1
|  6> C 2.4643843349 -0.5714779942 -0.8449569972
|  7> C 2.3676117737 0.1617352086 0.4879704968
|  8> C 0.939022769 0.3116913796 1.014969901
|  9> C 0.0335418866 1.1837425661 0.1345628102
| 10> C -0.8282255637 0.3911655319 -0.833297049
| 11> Cl -2.0587425513 -0.5843824321 0.0526152216
| 12> H 2.0143272694 0.010090438 -1.6449839823
| 13> H 1.9648433735 -1.5361036959 -0.7860884682
| 14> H 3.5074217583 -0.7442178899 -1.1004893877
| 15> H 2.9468119288 -0.3875849743 1.2337280479
| 16> H 2.8174229063 1.1520107692 0.3882136481
| 17> H 0.9969466813 0.7563770325 2.0100178518
| 18> H 0.4875834324 -0.6755774039 1.1291819258
| 19> H 0.6447144198 1.8711604923 -0.4530442074
| 20> H -0.6243940359 1.7834970294 0.7653093125
| 21> H -1.391899038 1.0486428841 -1.4926729008
| 22> H -0.2495435767 -0.3220642647 -1.4142964893
| 23> *
| 24>
| 25>                          ****END OF INPUT****

CARTESIAN COORDINATES (ANGSTROEM)
---------------------------------
  C      2.464384   -0.571478   -0.844957
  C      2.367612    0.161735    0.487970
  C      0.939023    0.311691    1.014970
  C      0.033542    1.183743    0.134563
  C     -0.828226    0.391166   -0.833297
  Cl    -2.058743   -0.584382    0.052615
  H      2.014327    0.010090   -1.644984
  H      1.964843   -1.536104   -0.786088
  H      3.507422   -0.744218   -1.100489
  H      2.946812   -0.387585    1.233728
  H      2.817423    1.152011    0.388214
  H      0.996947    0.756377    2.010018
  H      0.487583   -0.675577    1.129182
  H      0.644714    1.871160   -0.453044
  H     -0.624394    1.783497    0.765309
  H     -1.391899    1.048643   -1.492673
  H     -0.249544   -0.322064   -1.414296

 Total Charge           Charge          ....    0
 Multiplicity           Mult            ....    1
 Number of Electrons    NEL             ....   58
 Basis Dimension        Dim             ....  177

ORBITAL ENERGIES
----------------

  NO   OCC          E(Eh)            E(eV)
   0   2.0000    -101.196662     -2753.7012
   1   2.0000     -10.090621      -274.5797
   2   2.0000     -10.041008      -273.2297
   3   2.0000     -10.029815      -272.9252
   4   2.0000     -10.028021      -272.8763
   5   2.0000     -10.022367      -272.7225
   6   2.0000      -9.352694      -254.4997
   7   2.0000      -7.098832      -193.1690
   8   2.0000      -7.088791      -192.8958
   9   2.0000      -7.088750      -192.8947
  10   2.0000      -0.821380       -22.3509
  11   2.0000      -0.766000       -20.8439
  12   2.0000      -0.708235       -19.2721
  13   2.0000      -0.647873       -17.6295
  14   2.0000      -0.580176       -15.7874
  15   2.0000      -0.538569       -14.6552
  16   2.0000      -0.454110       -12.3569
  17   2.0000      -0.437659       -11.9093
  18   2.0000      -0.419719       -11.4211
  19   2.0000      -0.399947       -10.8831
  20   2.0000      -0.380558       -10.3555
  21   2.0000      -0.360170        -9.8007
  22   2.0000      -0.351766        -9.5720
  23   2.0000      -0.336198        -9.1484
  24   2.0000      -0.302887        -8.2420
  25   2.0000      -0.300902        -8.1880
  26   2.0000      -0.293077        -7.9750
  27   2.0000      -0.263672        -7.1749
  28   2.0000      -0.260552        -7.0900
  29   0.0000       0.008093         0.2202
  30   0.0000       0.081120         2.2074
  31   0.0000       0.102343         2.7849
  32   0.0000       0.105830         2.8798
  33   0.0000       0.117971         3.2102

MULLIKEN ATOMIC CHARGES
-----------------------
   0 C :   -0.501731
   1 C :   -0.257456
   2 C :   -0.266462
   3 C :   -0.268262
   4 C :   -0.182757
   5 Cl:   -0.206140
   6 H :    0.145810
   7 H :    0.155720
   8 H :    0.149055
   9 H :    0.141605
  10 H :    0.144457
  11 H :    0.149112
  12 H :    0.164049
  13 H :    0.146845
  14 H :    0.159305
  15 H :    0.163291
  16 H :    0.163559
Sum of atomic charges:    0.0000000

LOEWDIN ATOMIC CHARGES
----------------------
   0 C :   -0.430086
   1 C :   -0.315298
   2 C :   -0.317524
   3 C :   -0.328465
   4 C :   -0.319505
   5 Cl:   -0.008960
   6 H :    0.146526
   7 H :    0.151510
   8 H :    0.152150
   9 H :    0.153122
  10 H :    0.150142
  11 H :    0.158625
  12 H :    0.162606
  13 H :    0.163342
  14 H :    0.164666
  15 H :    0.157231
  16 H :    0.159918

  Mayer bond orders larger than 0.100000
B(  0-C ,  1-C ) :   0.8647 B(  0-C ,  6-H ) :   0.9803 B(  0-C ,  7-H ) :   0.9796
B(  0-C ,  8-H ) :   0.9662 B(  1-C ,  2-C ) :   0.9009 B(  1-C ,  9-H ) :   0.9701
B(  1-C , 10-H ) :   0.9944 B(  2-C ,  3-C ) :   0.8490 B(  2-C , 11-H ) :   0.9683
B(  2-C , 12-H ) :   0.9811 B(  3-C ,  4-C ) :   0.9385 B(  3-C , 13-H ) :   0.9586
B(  3-C , 14-H ) :   0.9599 B(  4-C ,  5-Cl) :   0.9990 B(  4-C , 15-H ) :   0.9591
B(  4-C , 16-H ) :   0.9590

Dispersion correction           -0.004571545
FINAL SINGLE POINT ENERGY      -657.264737228100

DIPOLE MOMENT
-------------

Method             : SCF
Type of density    : Electron Density
Multiplicity       :   1
Irrep              :   0
Energy             :  -657.2705901922414569 Eh
Relativity type    :
Basis              : AO
                                X                 Y                 Z
Electronic contribution:    -14.383739428      -3.091917433       1.090076298
Nuclear contribution   :     15.066615241       3.557803213      -1.351336796
                        -----------------------------------------
Total Dipole Moment    :      0.682875812       0.465885780      -0.261260499
                        -----------------------------------------
Magnitude (a.u.)       :      0.866963657
Magnitude (Debye)      :      2.203646490

Rotational constants in cm-1:             0.174906             0.043011             0.041085
Rotational constants in MHz :          5243.545175          1289.429610          1231.693898

                             ****ORCA TERMINATED NORMALLY****
TOTAL RUN TIME: 0 days 0 hours 0 minutes 19 seconds 695 msec
