                         Program Version 6.0.0  -   RELEASE  -
|  1> ! r2scan-3c def2/J RI DEFGRID2 scfconv6 printgap
|  2> %output
|  3>     printlevel normal
|  4> end
|  5> %cpcm
|  6>     smd true
|  7>     smdsolvent "water"
|  8> end
|  9> * xyz 0 1
| 10> C 2.4643843349 -0.5714779942 -0.8449569972
| 11> C 2.3676117737 0.1617352086 0.4879704968
| 12> C 0.939022769 0.3116913796 1.014969901
| 13> C 0.0335418866 1.1837425661 0.1345628102
| 14> C -0.8282255637 0.3911655319 -0.833297049
| 15> Cl -2.0587425513 -0.5843824321 0.0526152216
| 16> H 2.0143272694 0.010090438 -1.6449839823
| 17> H 1.9648433735 -1.5361036959 -0.7860884682
| 18> H 3.5074217583 -0.7442178899 -1.1004893877
| 19> H 2.9468119288 -0.3875849743 1.2337280479
| 20> H 2.8174229063 1.1520107692 0.3882136481
| 21> H 0.9969466813 0.7563770325 2.0100178518
| 22> H 0.4875834324 -0.6755774039 1.1291819258
| 23> H 0.6447144198 1.8711604923 -0.4530442074
| 24> H -0.6243940359 1.7834970294 0.7653093125
| 25> H -1.391899038 1.0486428841 -1.4926729008
| 26> H -0.2495435767 -0.3220642647 -1.4142964893
| 27> *
| 28>
| 29>                          ****END OF INPUT****

CARTESIAN COORDINATES (ANGSTROEM)
---------------------------------
  C      2.464384   -0.571478   -0.844957
  C      2.367612    0.161735    0.487970
  C      0.939023    0.311691    1.014970
  C      0.033542    1.183743    0.134563
  C     -0.828226    0.391166   -0.833297
  Cl    -2.058743   -0.584382    0.052615
  H      2.014327    0.010090   -1.644984
  H      1.964843   -1.536104   -0.786088
  H      3.507422   -0.744218   -1.100489
  H      2.946812   -0.387585    1.233728
  H      2.817423    1.152011    0.388214
  H      0.996947    0.756377    2.010018
  H      0.487583   -0.675577    1.129182
  H      0.644714    1.871160   -0.453044
  H     -0.624394    1.783497    0.765309
  H     -1.391899    1.048643   -1.492673
  H     -0.249544   -0.322064   -1.414296

 Total Charge           Charge          ....    0
 Multiplicity           Mult            ....    1
 Number of Electrons    NEL             ....   58
 Basis Dimension        Dim             ....  177

ORBITAL ENERGIES
----------------

  NO   OCC          E(Eh)            E(eV)
   0   2.0000    -101.197334     -2753.7194
   1   2.0000     -10.079735      -274.2835
   2   2.0000     -10.027039      -272.8496
   3   2.0000     -10.016537      -272.5638
   4   2.0000     -10.016329      -272.5582
   5   2.0000     -10.007164      -272.3088
   6   2.0000      -9.353759      -254.5287
   7   2.0000      -7.099490      -193.1869
   8   2.0000      -7.090025      -192.9294
   9   2.0000      -7.089983      -192.9282
  10   2.0000      -0.816852       -22.2277
  11   2.0000      -0.755000       -20.5446
  12   2.0000      -0.696959       -18.9652
  13   2.0000      -0.636204       -17.3120
  14   2.0000      -0.567932       -15.4542
  15   2.0000      -0.525992       -14.3130
  16   2.0000      -0.441318       -12.0089
  17   2.0000      -0.425497       -11.5784
  18   2.0000      -0.408276       -11.1098
  19   2.0000      -0.387762       -10.5515
  20   2.0000      -0.370970       -10.0946
  21   2.0000      -0.347064        -9.4441
  22   2.0000      -0.339571        -9.2402
  23   2.0000      -0.324270        -8.8238
  24   2.0000      -0.290609        -7.9079
  25   2.0000      -0.289427        -7.8757
  26   2.0000      -0.280641        -7.6366
  27   2.0000      -0.264143        -7.1877
  28   2.0000      -0.259152        -7.0519
  29   0.0000       0.013065         0.3555
  30   0.0000       0.094749         2.5782
  31   0.0000       0.115831         3.1519
  32   0.0000       0.119884         3.2622
  33   0.0000       0.128943         3.5087

MULLIKEN ATOMIC CHARGES
-----------------------
   0 C :   -0.529732
   1 C :   -0.269740
   2 C :   -0.281348
   3 C :   -0.279968
   4 C :   -0.192333
   5 Cl:   -0.255418
   6 H :    0.162899
   7 H :    0.160317
   8 H :    0.155565
   9 H :    0.147036
  10 H :    0.153449
  11 H :    0.158499
  12 H :    0.157975
  13 H :    0.169923
  14 H :    0.168461
  15 H :    0.188876
  16 H :    0.185538
Sum of atomic charges:    0.0000000

LOEWDIN ATOMIC CHARGES
----------------------
   0 C :   -0.436780
   1 C :   -0.316767
   2 C :   -0.321472
   3 C :   -0.327596
   4 C :   -0.312733
   5 Cl:   -0.041898
   6 H :    0.152638
   7 H :    0.152820
   8 H :    0.152601
   9 H :    0.153470
  10 H :    0.153289
  11 H :    0.160182
  12 H :    0.159071
  13 H :    0.173184
  14 H :    0.165623
  15 H :    0.166380
  16 H :    0.167987

  Mayer bond orders larger than 0.100000
B(  0-C ,  1-C ) :   0.8632 B(  0-C ,  6-H ) :   0.9766 B(  0-C ,  7-H ) :   0.9771
B(  0-C ,  8-H ) :   0.9652 B(  1-C ,  2-C ) :   0.8984 B(  1-C ,  9-H ) :   0.9718
B(  1-C , 10-H ) :   0.9928 B(  2-C ,  3-C ) :   0.8366 B(  2-C , 11-H ) :   0.9689
B(  2-C , 12-H ) :   0.9840 B(  3-C ,  4-C ) :   0.9346 B(  3-C , 13-H ) :   0.9528
B(  3-C , 14-H ) :   0.9630 B(  4-C ,  5-Cl) :   0.9568 B(  4-C , 15-H ) :   0.9521
B(  4-C , 16-H ) :   0.9549

Dispersion correction           -0.004571545
FINAL SINGLE POINT ENERGY      -657.266099217784

DIPOLE MOMENT
-------------

Method             : SCF
Type of density    : Electron Density
Multiplicity       :   1
Irrep              :   0
Energy             :  -657.2719521819255988 Eh
Relativity type    :
Basis              : AO
                                X                 Y                 Z
Electronic contribution:    -14.211469100      -2.901798370       0.921584896
Nuclear contribution   :     15.066615241       3.557803213      -1.351336796
                        -----------------------------------------
Total Dipole Moment    :      0.855146141       0.656004843      -0.429751901
                        -----------------------------------------
Magnitude (a.u.)       :      1.160303397
Magnitude (Debye)      :      2.949256853

Rotational constants in cm-1:             0.174906             0.043011             0.041085
Rotational constants in MHz :          5243.545175          1289.429610          1231.693898

                             ****ORCA TERMINATED NORMALLY****
TOTAL RUN TIME: 0 days 0 hours 0 minutes 25 seconds 672 msec
