                         Program Version 6.0.0  -   RELEASE  -
|  1> ! pbe def2-sv(p) def2/J RI DEFGRID1 loosescf d4 GCP(DFT/SV(P)) printgap
|  2> %output
|  3>     printlevel normal
|  4> end
|  5> * xyz 0 1
|  6> C 2.2715857646 1.109655649 0.2185991146
|  7> C 1.2289196907 -0.0117449266 0.2807805939
|  8> C 1.7780773066 -1.2669875441 -0.4065434004
|  9> N -0.0093137507 0.4803869125 -0.3072700517
| 10> C -1.2641997999 0.1330925416 0.3324342842
| 11> C -1.6370411694 -1.3560590271 0.2646134661
| 12> C -2.3690558925 0.9775452765 -0.3025489836
| 13> H 1.8890302391 1.9968302778 0.7142266985
| 14> H 3.1926032302 0.8001354447 0.7050232558
| 15> H 2.4865078217 1.3597435099 -0.8169586369
| 16> H 1.0289473476 -0.2388018596 1.3350816716
| 17> H 2.0189000188 -1.0446630133 -1.4445932254
| 18> H 1.0540255717 -2.0775204506 -0.385537668
| 19> H 2.6840584806 -1.6020980229 0.0921702698
| 20> H -0.0435300286 0.2614128686 -1.2965977044
| 21> H -1.1655161766 0.4201615596 1.3874221346
| 22> H -2.6174529798 -1.5139066154 0.7066517579
| 23> H -1.6665095398 -1.6899783435 -0.7712552153
| 24> H -0.916902953 -1.962182625 0.8093640331
| 25> H -2.5185124364 0.6826787626 -1.3387419006
| 26> H -2.0915962194 2.0270314171 -0.2774651755
| 27> H -3.3033618622 0.8447749889 0.2354986717
| 28> *
| 29>
| 30>                          ****END OF INPUT****

CARTESIAN COORDINATES (ANGSTROEM)
---------------------------------
  C      2.271586    1.109656    0.218599
  C      1.228920   -0.011745    0.280781
  C      1.778077   -1.266988   -0.406543
  N     -0.009314    0.480387   -0.307270
  C     -1.264200    0.133093    0.332434
  C     -1.637041   -1.356059    0.264613
  C     -2.369056    0.977545   -0.302549
  H      1.889030    1.996830    0.714227
  H      3.192603    0.800135    0.705023
  H      2.486508    1.359744   -0.816959
  H      1.028947   -0.238802    1.335082
  H      2.018900   -1.044663   -1.444593
  H      1.054026   -2.077520   -0.385538
  H      2.684058   -1.602098    0.092170
  H     -0.043530    0.261413   -1.296598
  H     -1.165516    0.420162    1.387422
  H     -2.617453   -1.513907    0.706652
  H     -1.666510   -1.689978   -0.771255
  H     -0.916903   -1.962183    0.809364
  H     -2.518512    0.682679   -1.338742
  H     -2.091596    2.027031   -0.277465
  H     -3.303362    0.844775    0.235499

 Total Charge           Charge          ....    0
 Multiplicity           Mult            ....    1
 Number of Electrons    NEL             ....   58
 Basis Dimension        Dim             ....  128

ORBITAL ENERGIES
----------------

  NO   OCC          E(Eh)            E(eV)
   0   2.0000     -13.957348      -379.7988
   1   2.0000      -9.914315      -269.7822
   2   2.0000      -9.913911      -269.7712
   3   2.0000      -9.871860      -268.6270
   4   2.0000      -9.869681      -268.5677
   5   2.0000      -9.867321      -268.5035
   6   2.0000      -9.862182      -268.3636
   7   2.0000      -0.816840       -22.2273
   8   2.0000      -0.706281       -19.2189
   9   2.0000      -0.649111       -17.6632
  10   2.0000      -0.610404       -16.6099
  11   2.0000      -0.604688       -16.4544
  12   2.0000      -0.521207       -14.1828
  13   2.0000      -0.517987       -14.0951
  14   2.0000      -0.429393       -11.6844
  15   2.0000      -0.415091       -11.2952
  16   2.0000      -0.384761       -10.4699
  17   2.0000      -0.376387       -10.2420
  18   2.0000      -0.374318       -10.1857
  19   2.0000      -0.352145        -9.5823
  20   2.0000      -0.342135        -9.3100
  21   2.0000      -0.337842        -9.1931
  22   2.0000      -0.335587        -9.1318
  23   2.0000      -0.307187        -8.3590
  24   2.0000      -0.304335        -8.2814
  25   2.0000      -0.291096        -7.9211
  26   2.0000      -0.288372        -7.8470
  27   2.0000      -0.279349        -7.6015
  28   2.0000      -0.162417        -4.4196
  29   0.0000       0.032880         0.8947
  30   0.0000       0.051440         1.3998
  31   0.0000       0.056883         1.5479
  32   0.0000       0.077825         2.1177
  33   0.0000       0.093496         2.5442

MULLIKEN ATOMIC CHARGES
-----------------------
   0 C :   -0.202818
   1 C :   -0.094278
   2 C :   -0.263112
   3 N :   -0.317758
   4 C :   -0.101355
   5 C :   -0.244846
   6 C :   -0.235819
   7 H :    0.096455
   8 H :    0.084941
   9 H :    0.083053
  10 H :    0.070753
  11 H :    0.091072
  12 H :    0.103511
  13 H :    0.097199
  14 H :    0.187955
  15 H :    0.071640
  16 H :    0.092145
  17 H :    0.084230
  18 H :    0.111022
  19 H :    0.086306
  20 H :    0.104107
  21 H :    0.095597
Sum of atomic charges:    0.0000000

LOEWDIN ATOMIC CHARGES
----------------------
   0 C :   -0.336801
   1 C :   -0.102122
   2 C :   -0.347622
   3 N :   -0.239938
   4 C :   -0.103188
   5 C :   -0.352427
   6 C :   -0.336943
   7 H :    0.117948
   8 H :    0.111919
   9 H :    0.113964
  10 H :    0.110521
  11 H :    0.115024
  12 H :    0.115765
  13 H :    0.120507
  14 H :    0.203364
  15 H :    0.110217
  16 H :    0.118410
  17 H :    0.113073
  18 H :    0.116052
  19 H :    0.113604
  20 H :    0.120568
  21 H :    0.118103

  Mayer bond orders larger than 0.100000
B(  0-C ,  1-C ) :   1.1078 B(  0-C ,  7-H ) :   0.9497 B(  0-C ,  8-H ) :   0.9455
B(  0-C ,  9-H ) :   0.9470 B(  1-C ,  2-C ) :   1.1169 B(  1-C ,  3-N ) :   1.0376
B(  1-C , 10-H ) :   0.9007 B(  2-C , 11-H ) :   0.9416 B(  2-C , 12-H ) :   0.9428
B(  2-C , 13-H ) :   0.9442 B(  3-N ,  4-C ) :   1.0685 B(  3-N , 14-H ) :   0.8742
B(  4-C ,  5-C ) :   1.0845 B(  4-C ,  6-C ) :   1.1194 B(  4-C , 15-H ) :   0.9041
B(  5-C , 16-H ) :   0.9401 B(  5-C , 17-H ) :   0.9417 B(  5-C , 18-H ) :   0.9397
B(  6-C , 19-H ) :   0.9482 B(  6-C , 20-H ) :   0.9474 B(  6-C , 21-H ) :   0.9492

Dispersion correction           -0.017406044
FINAL SINGLE POINT ENERGY      -291.672220323760

DIPOLE MOMENT
-------------

Method             : SCF
Type of density    : Electron Density
Multiplicity       :   1
Irrep              :   0
Energy             :  -291.7515218341179093 Eh
Relativity type    :
Basis              : AO
                                X                 Y                 Z
Electronic contribution:     -0.071569890       1.305595930       0.287151918
Nuclear contribution   :      0.028741790      -1.626383306      -0.326012334
                        -----------------------------------------
Total Dipole Moment    :     -0.042828100      -0.320787375      -0.038860416
                        -----------------------------------------
Magnitude (a.u.)       :      0.325958461
Magnitude (Debye)      :      0.828520564

Rotational constants in cm-1:             0.138707             0.051797             0.041662
Rotational constants in MHz :          4158.322746          1552.833309          1248.996677

                             ****ORCA TERMINATED NORMALLY****
TOTAL RUN TIME: 0 days 0 hours 0 minutes 10 seconds 737 msec
