                         Program Version 6.0.0  -   RELEASE  -
|  1> ! pbe def2-sv(p) def2/J RI DEFGRID1 loosescf d4 GCP(DFT/SV(P)) printgap
|  2> %output
|  3>     printlevel normal
|  4> end
|  5> * xyz 0 1
|  6> C 2.166727082 0.5665197819 0.0556560212
|  7> C 1.2318371064 -0.3428666038 0.254598532
|  8> C 1.0304e-05 -0.4896864617 -0.5871716175
|  9> C -1.231582165 -0.342559995 0.2549174188
| 10> C -2.1669528998 0.5662421759 0.0555601383
| 11> H 3.0355751724 0.6394814178 0.6871931115
| 12> H 2.1041854674 1.2753917595 -0.7536104297
| 13> H 1.315031266 -1.0418547279 1.0768604547
| 14> H -0.0001923888 -1.4904607321 -1.0318393122
| 15> H 3.52329e-05 0.2494068783 -1.3890953893
| 16> H -1.3143719542 -1.0411081001 1.0775982769
| 17> H -3.0357270739 0.639242013 0.6872081841
| 18> H -2.1050055459 1.274562018 -0.7542255204
| 19> *
| 20>
| 21>                          ****END OF INPUT****

CARTESIAN COORDINATES (ANGSTROEM)
---------------------------------
  C      2.166727    0.566520    0.055656
  C      1.231837   -0.342867    0.254599
  C      0.000010   -0.489686   -0.587172
  C     -1.231582   -0.342560    0.254917
  C     -2.166953    0.566242    0.055560
  H      3.035575    0.639481    0.687193
  H      2.104185    1.275392   -0.753610
  H      1.315031   -1.041855    1.076860
  H     -0.000192   -1.490461   -1.031839
  H      0.000035    0.249407   -1.389095
  H     -1.314372   -1.041108    1.077598
  H     -3.035727    0.639242    0.687208
  H     -2.105006    1.274562   -0.754226

 Total Charge           Charge          ....    0
 Multiplicity           Mult            ....    1
 Number of Electrons    NEL             ....   38
 Basis Dimension        Dim             ....   86

ORBITAL ENERGIES
----------------

  NO   OCC          E(Eh)            E(eV)
   0   2.0000      -9.895221      -269.2627
   1   2.0000      -9.895056      -269.2582
   2   2.0000      -9.895009      -269.2569
   3   2.0000      -9.877417      -268.7782
   4   2.0000      -9.877412      -268.7780
   5   2.0000      -0.734004       -19.9733
   6   2.0000      -0.678270       -18.4567
   7   2.0000      -0.608715       -16.5640
   8   2.0000      -0.501691       -13.6517
   9   2.0000      -0.498493       -13.5647
  10   2.0000      -0.420989       -11.4557
  11   2.0000      -0.418403       -11.3853
  12   2.0000      -0.386026       -10.5043
  13   2.0000      -0.356170        -9.6919
  14   2.0000      -0.345830        -9.4105
  15   2.0000      -0.306164        -8.3312
  16   2.0000      -0.304674        -8.2906
  17   2.0000      -0.232024        -6.3137
  18   2.0000      -0.226813        -6.1719
  19   0.0000      -0.027449        -0.7469
  20   0.0000       0.000843         0.0230
  21   0.0000       0.052994         1.4420
  22   0.0000       0.061750         1.6803
  23   0.0000       0.078692         2.1413

MULLIKEN ATOMIC CHARGES
-----------------------
   0 C :   -0.202305
   1 C :   -0.125185
   2 C :   -0.070215
   3 C :   -0.125144
   4 C :   -0.202334
   5 H :    0.098641
   6 H :    0.092611
   7 H :    0.075676
   8 H :    0.106416
   9 H :    0.084922
  10 H :    0.075670
  11 H :    0.098643
  12 H :    0.092603
Sum of atomic charges:   -0.0000000

LOEWDIN ATOMIC CHARGES
----------------------
   0 C :   -0.255015
   1 C :   -0.128572
   2 C :   -0.215028
   3 C :   -0.128559
   4 C :   -0.255029
   5 H :    0.121867
   6 H :    0.119315
   7 H :    0.119990
   8 H :    0.135393
   9 H :    0.124470
  10 H :    0.119990
  11 H :    0.121866
  12 H :    0.119310

  Mayer bond orders larger than 0.100000
B(  0-C ,  1-C ) :   2.0851 B(  0-C ,  5-H ) :   0.9252 B(  0-C ,  6-H ) :   0.9195
B(  1-C ,  2-C ) :   1.0531 B(  1-C ,  7-H ) :   0.9318 B(  2-C ,  3-C ) :   1.0531
B(  2-C ,  8-H ) :   0.8896 B(  2-C ,  9-H ) :   0.9167 B(  3-C ,  4-C ) :   2.0851
B(  3-C , 10-H ) :   0.9318 B(  4-C , 11-H ) :   0.9252 B(  4-C , 12-H ) :   0.9195

Dispersion correction           -0.008582107
FINAL SINGLE POINT ENERGY      -194.814441627767

DIPOLE MOMENT
-------------

Method             : SCF
Type of density    : Electron Density
Multiplicity       :   1
Irrep              :   0
Energy             :  -194.8535972273076027 Eh
Relativity type    :
Basis              : AO
                                X                 Y                 Z
Electronic contribution:      0.000427952      -0.596736103       0.354627240
Nuclear contribution   :     -0.000440776       0.473458542      -0.375185082
                        -----------------------------------------
Total Dipole Moment    :     -0.000012824      -0.123277561      -0.020557842
                        -----------------------------------------
Magnitude (a.u.)       :      0.124979927
Magnitude (Debye)      :      0.317673729

Rotational constants in cm-1:             0.478538             0.087140             0.083362
Rotational constants in MHz :         14346.193818          2612.404284          2499.140852

                             ****ORCA TERMINATED NORMALLY****
TOTAL RUN TIME: 0 days 0 hours 0 minutes 5 seconds 418 msec
