                         Program Version 6.0.0  -   RELEASE  -
|  1> ! r2scan-3c def2/J RI DEFGRID2 scfconv6 printgap
|  2> %output
|  3>     printlevel normal
|  4> end
|  5> * xyz 0 1
|  6> C 3.3565437527 -0.7471806119 -0.169469752
|  7> C 2.3470967685 0.2651687086 0.3586029687
|  8> C 0.9714391087 0.0741975685 -0.2759105937
|  9> C -0.0436001299 1.0872389176 0.2497497041
| 10> C -1.4154477581 0.9247215765 -0.3787233111
| 11> Cl -2.170075836 -0.6394099306 0.0985009208
| 12> H 4.3273926727 -0.5982462148 0.2964599347
| 13> H 3.4721218096 -0.6442346758 -1.2460015346
| 14> H 3.0252647048 -1.7612593582 0.0430573172
| 15> H 2.2622058233 0.1604798145 1.4423587147
| 16> H 2.7038139875 1.2759323976 0.1494771525
| 17> H 0.6142912372 -0.9361060937 -0.0652905414
| 18> H 1.0566176464 0.1768303758 -1.3599892232
| 19> H 0.3015535904 2.0982710676 0.0231927937
| 20> H -0.1263402271 0.9935660937 1.3339799656
| 21> H -2.1034683489 1.6990329112 -0.0451896263
| 22> H -1.3594858715 0.9106724172 -1.4657627365
| 23> *
| 24>
| 25>                          ****END OF INPUT****

CARTESIAN COORDINATES (ANGSTROEM)
---------------------------------
  C      3.356544   -0.747181   -0.169470
  C      2.347097    0.265169    0.358603
  C      0.971439    0.074198   -0.275911
  C     -0.043600    1.087239    0.249750
  C     -1.415448    0.924722   -0.378723
  Cl    -2.170076   -0.639410    0.098501
  H      4.327393   -0.598246    0.296460
  H      3.472122   -0.644235   -1.246002
  H      3.025265   -1.761259    0.043057
  H      2.262206    0.160480    1.442359
  H      2.703814    1.275932    0.149477
  H      0.614291   -0.936106   -0.065291
  H      1.056618    0.176830   -1.359989
  H      0.301554    2.098271    0.023193
  H     -0.126340    0.993566    1.333980
  H     -2.103468    1.699033   -0.045190
  H     -1.359486    0.910672   -1.465763

 Total Charge           Charge          ....    0
 Multiplicity           Mult            ....    1
 Number of Electrons    NEL             ....   58
 Basis Dimension        Dim             ....  177

ORBITAL ENERGIES
----------------

  NO   OCC          E(Eh)            E(eV)
   0   2.0000    -101.196854     -2753.7064
   1   2.0000     -10.091392      -274.6007
   2   2.0000     -10.040943      -273.2280
   3   2.0000     -10.028028      -272.8765
   4   2.0000     -10.027732      -272.8684
   5   2.0000     -10.017691      -272.5952
   6   2.0000      -9.352906      -254.5055
   7   2.0000      -7.099045      -193.1748
   8   2.0000      -7.089021      -192.9021
   9   2.0000      -7.088940      -192.8999
  10   2.0000      -0.821801       -22.3623
  11   2.0000      -0.765826       -20.8392
  12   2.0000      -0.711335       -19.3564
  13   2.0000      -0.640785       -17.4366
  14   2.0000      -0.570507       -15.5243
  15   2.0000      -0.548950       -14.9377
  16   2.0000      -0.456067       -12.4102
  17   2.0000      -0.435967       -11.8633
  18   2.0000      -0.414981       -11.2922
  19   2.0000      -0.396712       -10.7951
  20   2.0000      -0.384199       -10.4546
  21   2.0000      -0.364696        -9.9239
  22   2.0000      -0.343225        -9.3396
  23   2.0000      -0.321692        -8.7537
  24   2.0000      -0.308037        -8.3821
  25   2.0000      -0.301794        -8.2122
  26   2.0000      -0.298335        -8.1181
  27   2.0000      -0.263670        -7.1748
  28   2.0000      -0.260536        -7.0896
  29   0.0000       0.009574         0.2605
  30   0.0000       0.092136         2.5072
  31   0.0000       0.100557         2.7363
  32   0.0000       0.115570         3.1448
  33   0.0000       0.130775         3.5586

MULLIKEN ATOMIC CHARGES
-----------------------
   0 C :   -0.464874
   1 C :   -0.227228
   2 C :   -0.288241
   3 C :   -0.270407
   4 C :   -0.143334
   5 Cl:   -0.211922
   6 H :    0.146928
   7 H :    0.140507
   8 H :    0.144013
   9 H :    0.136485
  10 H :    0.132119
  11 H :    0.160212
  12 H :    0.133612
  13 H :    0.142450
  14 H :    0.155292
  15 H :    0.164168
  16 H :    0.150220
Sum of atomic charges:    0.0000000

LOEWDIN ATOMIC CHARGES
----------------------
   0 C :   -0.424089
   1 C :   -0.315136
   2 C :   -0.317100
   3 C :   -0.327371
   4 C :   -0.316950
   5 Cl:   -0.009210
   6 H :    0.150356
   7 H :    0.149581
   8 H :    0.151053
   9 H :    0.152023
  10 H :    0.149883
  11 H :    0.162493
  12 H :    0.153696
  13 H :    0.162156
  14 H :    0.163414
  15 H :    0.157272
  16 H :    0.157928

  Mayer bond orders larger than 0.100000
B(  0-C ,  1-C ) :   0.9055 B(  0-C ,  6-H ) :   0.9757 B(  0-C ,  7-H ) :   0.9829
B(  0-C ,  8-H ) :   0.9822 B(  1-C ,  2-C ) :   0.9273 B(  1-C ,  9-H ) :   0.9713
B(  1-C , 10-H ) :   0.9733 B(  2-C ,  3-C ) :   0.9243 B(  2-C , 11-H ) :   0.9682
B(  2-C , 12-H ) :   0.9735 B(  3-C ,  4-C ) :   0.9337 B(  3-C , 13-H ) :   0.9559
B(  3-C , 14-H ) :   0.9703 B(  4-C ,  5-Cl) :   0.9679 B(  4-C , 15-H ) :   0.9594
B(  4-C , 16-H ) :   0.9669

Dispersion correction           -0.004226557
FINAL SINGLE POINT ENERGY      -657.268883002942

DIPOLE MOMENT
-------------

Method             : SCF
Type of density    : Electron Density
Multiplicity       :   1
Irrep              :   0
Energy             :  -657.2748495405672884 Eh
Relativity type    :
Basis              : AO
                                X                 Y                 Z
Electronic contribution:    -15.722529758      -3.343047455       0.814325644
Nuclear contribution   :     16.210254160       4.024480274      -0.970656708
                        -----------------------------------------
Total Dipole Moment    :      0.487724402       0.681432819      -0.156331065
                        -----------------------------------------
Magnitude (a.u.)       :      0.852446585
Magnitude (Debye)      :      2.166747025

Rotational constants in cm-1:             0.217597             0.035134             0.031998
Rotational constants in MHz :          6523.405030          1053.294247           959.284977

                             ****ORCA TERMINATED NORMALLY****
TOTAL RUN TIME: 0 days 0 hours 0 minutes 18 seconds 886 msec
