                         Program Version 6.0.0  -   RELEASE  -
|  1> ! r2scan-3c def2/J RI DEFGRID2 scfconv6 printgap
|  2> %output
|  3>     printlevel normal
|  4> end
|  5> %cpcm
|  6>     smd true
|  7>     smdsolvent "water"
|  8> end
|  9> * xyz 0 1
| 10> C 3.3565437527 -0.7471806119 -0.169469752
| 11> C 2.3470967685 0.2651687086 0.3586029687
| 12> C 0.9714391087 0.0741975685 -0.2759105937
| 13> C -0.0436001299 1.0872389176 0.2497497041
| 14> C -1.4154477581 0.9247215765 -0.3787233111
| 15> Cl -2.170075836 -0.6394099306 0.0985009208
| 16> H 4.3273926727 -0.5982462148 0.2964599347
| 17> H 3.4721218096 -0.6442346758 -1.2460015346
| 18> H 3.0252647048 -1.7612593582 0.0430573172
| 19> H 2.2622058233 0.1604798145 1.4423587147
| 20> H 2.7038139875 1.2759323976 0.1494771525
| 21> H 0.6142912372 -0.9361060937 -0.0652905414
| 22> H 1.0566176464 0.1768303758 -1.3599892232
| 23> H 0.3015535904 2.0982710676 0.0231927937
| 24> H -0.1263402271 0.9935660937 1.3339799656
| 25> H -2.1034683489 1.6990329112 -0.0451896263
| 26> H -1.3594858715 0.9106724172 -1.4657627365
| 27> *
| 28>
| 29>                          ****END OF INPUT****

CARTESIAN COORDINATES (ANGSTROEM)
---------------------------------
  C      3.356544   -0.747181   -0.169470
  C      2.347097    0.265169    0.358603
  C      0.971439    0.074198   -0.275911
  C     -0.043600    1.087239    0.249750
  C     -1.415448    0.924722   -0.378723
  Cl    -2.170076   -0.639410    0.098501
  H      4.327393   -0.598246    0.296460
  H      3.472122   -0.644235   -1.246002
  H      3.025265   -1.761259    0.043057
  H      2.262206    0.160480    1.442359
  H      2.703814    1.275932    0.149477
  H      0.614291   -0.936106   -0.065291
  H      1.056618    0.176830   -1.359989
  H      0.301554    2.098271    0.023193
  H     -0.126340    0.993566    1.333980
  H     -2.103468    1.699033   -0.045190
  H     -1.359486    0.910672   -1.465763

 Total Charge           Charge          ....    0
 Multiplicity           Mult            ....    1
 Number of Electrons    NEL             ....   58
 Basis Dimension        Dim             ....  177

ORBITAL ENERGIES
----------------

  NO   OCC          E(Eh)            E(eV)
   0   2.0000    -101.197386     -2753.7209
   1   2.0000     -10.080223      -274.2968
   2   2.0000     -10.026936      -272.8468
   3   2.0000     -10.016186      -272.5543
   4   2.0000     -10.015849      -272.5451
   5   2.0000     -10.007078      -272.3064
   6   2.0000      -9.353831      -254.5307
   7   2.0000      -7.099563      -193.1889
   8   2.0000      -7.090114      -192.9318
   9   2.0000      -7.090036      -192.9297
  10   2.0000      -0.817189       -22.2368
  11   2.0000      -0.755791       -20.5661
  12   2.0000      -0.701564       -19.0905
  13   2.0000      -0.630615       -17.1599
  14   2.0000      -0.559289       -15.2190
  15   2.0000      -0.537055       -14.6140
  16   2.0000      -0.443995       -12.0817
  17   2.0000      -0.423971       -11.5369
  18   2.0000      -0.404806       -11.0153
  19   2.0000      -0.386953       -10.5295
  20   2.0000      -0.373647       -10.1674
  21   2.0000      -0.355953        -9.6860
  22   2.0000      -0.332800        -9.0560
  23   2.0000      -0.309661        -8.4263
  24   2.0000      -0.297531        -8.0962
  25   2.0000      -0.291751        -7.9389
  26   2.0000      -0.286475        -7.7954
  27   2.0000      -0.263987        -7.1835
  28   2.0000      -0.259441        -7.0598
  29   0.0000       0.014413         0.3922
  30   0.0000       0.104548         2.8449
  31   0.0000       0.113438         3.0868
  32   0.0000       0.125898         3.4259
  33   0.0000       0.141554         3.8519

MULLIKEN ATOMIC CHARGES
-----------------------
   0 C :   -0.507527
   1 C :   -0.239457
   2 C :   -0.302941
   3 C :   -0.280958
   4 C :   -0.161016
   5 Cl:   -0.259852
   6 H :    0.156000
   7 H :    0.152541
   8 H :    0.152617
   9 H :    0.145170
  10 H :    0.144800
  11 H :    0.153742
  12 H :    0.151277
  13 H :    0.164781
  14 H :    0.164845
  15 H :    0.188834
  16 H :    0.177143
Sum of atomic charges:    0.0000000

LOEWDIN ATOMIC CHARGES
----------------------
   0 C :   -0.433662
   1 C :   -0.316969
   2 C :   -0.319821
   3 C :   -0.325955
   4 C :   -0.311111
   5 Cl:   -0.041797
   6 H :    0.152117
   7 H :    0.152084
   8 H :    0.152107
   9 H :    0.153690
  10 H :    0.153481
  11 H :    0.157796
  12 H :    0.158360
  13 H :    0.171561
  14 H :    0.164557
  15 H :    0.166402
  16 H :    0.167159

  Mayer bond orders larger than 0.100000
B(  0-C ,  1-C ) :   0.8921 B(  0-C ,  6-H ) :   0.9731 B(  0-C ,  7-H ) :   0.9809
B(  0-C ,  8-H ) :   0.9811 B(  1-C ,  2-C ) :   0.9218 B(  1-C ,  9-H ) :   0.9721
B(  1-C , 10-H ) :   0.9731 B(  2-C ,  3-C ) :   0.9133 B(  2-C , 11-H ) :   0.9727
B(  2-C , 12-H ) :   0.9706 B(  3-C ,  4-C ) :   0.9266 B(  3-C , 13-H ) :   0.9492
B(  3-C , 14-H ) :   0.9748 B(  4-C ,  5-Cl) :   0.9314 B(  4-C , 15-H ) :   0.9526
B(  4-C , 16-H ) :   0.9629

Dispersion correction           -0.004226557
FINAL SINGLE POINT ENERGY      -657.270081871986

DIPOLE MOMENT
-------------

Method             : SCF
Type of density    : Electron Density
Multiplicity       :   1
Irrep              :   0
Energy             :  -657.2760484096108939 Eh
Relativity type    :
Basis              : AO
                                X                 Y                 Z
Electronic contribution:    -15.629190351      -3.054941677       0.735713196
Nuclear contribution   :     16.210254160       4.024480274      -0.970656708
                        -----------------------------------------
Total Dipole Moment    :      0.581063810       0.969538597      -0.234943512
                        -----------------------------------------
Magnitude (a.u.)       :      1.154486334
Magnitude (Debye)      :      2.934471056

Rotational constants in cm-1:             0.217597             0.035134             0.031998
Rotational constants in MHz :          6523.405030          1053.294247           959.284977

                             ****ORCA TERMINATED NORMALLY****
TOTAL RUN TIME: 0 days 0 hours 0 minutes 24 seconds 739 msec
