                         Program Version 6.0.0  -   RELEASE  -
|  1> ! r2scan-3c def2/J RI DEFGRID2 scfconv6 printgap
|  2> %output
|  3>     printlevel normal
|  4> end
|  5> * xyz 0 1
|  6> C -4.6376373311 -0.9509115653 -0.3129621053
|  7> C -3.9726843646 -2.1552806882 -0.1280319671
|  8> C -2.6019534779 -2.1689249609 0.0503195876
|  9> C -1.8707617315 -0.9826776958 0.0465508969
| 10> C -2.5428580325 0.2301666438 -0.140392849
| 11> C -3.9252851322 0.2331488257 -0.3185579617
| 12> C -1.8076806655 1.5010477046 -0.1529328789
| 13> O -2.386548515 2.575120374 -0.3106989003
| 14> C -0.3489052595 1.4269460468 0.0299487926
| 15> C 0.3475249169 2.6221187922 -0.0105078786
| 16> C 1.7329368955 2.636292575 0.1332401586
| 17> C 2.4164103021 1.4687499414 0.3370937562
| 18> C 1.7458166635 0.2233826932 0.4112968995
| 19> C 0.3264714644 0.1990829947 0.2349693993
| 20> C -0.4087520193 -1.0455952074 0.2443877253
| 21> O 0.1250962785 -2.1591932769 0.4031915138
| 22> N 2.4131508044 -0.9097407413 0.6635975132
| 23> C 3.8354478179 -1.075394649 0.8149267809
| 24> C 4.5638063276 -1.2469094576 -0.5260621814
| 25> O 4.6592348896 0.0081593905 -1.1671391335
| 26> H -5.707156557 -0.9372398004 -0.4520743544
| 27> H -4.5240426211 -3.0824586878 -0.1227380518
| 28> H -2.0666029602 -3.0953770219 0.196734933
| 29> H -4.4156191105 1.1849647161 -0.4603509457
| 30> H -0.208783246 3.5334993777 -0.1680015085
| 31> H 2.2659749941 3.5723883412 0.0784339498
| 32> H 3.4900383291 1.4873095654 0.4090760162
| 33> H 1.8484364352 -1.7563470159 0.6175395141
| 34> H 3.9968239161 -1.9742103401 1.4108356138
| 35> H 4.2651197073 -0.2217418731 1.3411984852
| 36> H 4.0082501585 -1.9592566341 -1.1487378082
| 37> H 5.5657725823 -1.6493546194 -0.3293990627
| 38> H 5.0669749025 -0.0983415911 -2.0356698725
| 39> *
| 40>
| 41>                          ****END OF INPUT****

CARTESIAN COORDINATES (ANGSTROEM)
---------------------------------
  C     -4.637637   -0.950912   -0.312962
  C     -3.972684   -2.155281   -0.128032
  C     -2.601953   -2.168925    0.050320
  C     -1.870762   -0.982678    0.046551
  C     -2.542858    0.230167   -0.140393
  C     -3.925285    0.233149   -0.318558
  C     -1.807681    1.501048   -0.152933
  O     -2.386549    2.575120   -0.310699
  C     -0.348905    1.426946    0.029949
  C      0.347525    2.622119   -0.010508
  C      1.732937    2.636293    0.133240
  C      2.416410    1.468750    0.337094
  C      1.745817    0.223383    0.411297
  C      0.326471    0.199083    0.234969
  C     -0.408752   -1.045595    0.244388
  O      0.125096   -2.159193    0.403192
  N      2.413151   -0.909741    0.663598
  C      3.835448   -1.075395    0.814927
  C      4.563806   -1.246909   -0.526062
  O      4.659235    0.008159   -1.167139
  H     -5.707157   -0.937240   -0.452074
  H     -4.524043   -3.082459   -0.122738
  H     -2.066603   -3.095377    0.196735
  H     -4.415619    1.184965   -0.460351
  H     -0.208783    3.533499   -0.168002
  H      2.265975    3.572388    0.078434
  H      3.490038    1.487310    0.409076
  H      1.848436   -1.756347    0.617540
  H      3.996824   -1.974210    1.410836
  H      4.265120   -0.221742    1.341198
  H      4.008250   -1.959257   -1.148738
  H      5.565773   -1.649355   -0.329399
  H      5.066975   -0.098342   -2.035670

 Total Charge           Charge          ....    0
 Multiplicity           Mult            ....    1
 Number of Electrons    NEL             ....  140
 Basis Dimension        Dim             ....  465

ORBITAL ENERGIES
----------------

  NO   OCC          E(Eh)            E(eV)
   0   2.0000     -18.967899      -516.1428
   1   2.0000     -18.937098      -515.3046
   2   2.0000     -18.931630      -515.1559
   3   2.0000     -14.185343      -386.0028
   4   2.0000     -10.119248      -275.3587
   5   2.0000     -10.116036      -275.2713
   6   2.0000     -10.097936      -274.7788
   7   2.0000     -10.096227      -274.7323
   8   2.0000     -10.085151      -274.4309
   9   2.0000     -10.054755      -273.6038
  10   2.0000     -10.052329      -273.5378
  11   2.0000     -10.051902      -273.5261
  12   2.0000     -10.050794      -273.4960
  13   2.0000     -10.050004      -273.4745
  14   2.0000     -10.049009      -273.4474
  15   2.0000     -10.047395      -273.4035
  16   2.0000     -10.046069      -273.3674
  17   2.0000     -10.045479      -273.3514
  18   2.0000     -10.041687      -273.2482
  19   2.0000     -10.034828      -273.0616
  20   2.0000      -1.005488       -27.3607
  21   2.0000      -1.001093       -27.2411
  22   2.0000      -0.995774       -27.0964
  23   2.0000      -0.924873       -25.1671
  24   2.0000      -0.846095       -23.0234
  25   2.0000      -0.828420       -22.5424
  26   2.0000      -0.768800       -20.9201
  27   2.0000      -0.748714       -20.3736
  28   2.0000      -0.732910       -19.9435
  29   2.0000      -0.726295       -19.7635
  30   2.0000      -0.697868       -18.9899
  31   2.0000      -0.645956       -17.5774
  32   2.0000      -0.629430       -17.1277
  33   2.0000      -0.610235       -16.6053
  34   2.0000      -0.599629       -16.3167
  35   2.0000      -0.564613       -15.3639
  36   2.0000      -0.549017       -14.9395
  37   2.0000      -0.518782       -14.1168
  38   2.0000      -0.513663       -13.9775
  39   2.0000      -0.506363       -13.7788
  40   2.0000      -0.482503       -13.1296
  41   2.0000      -0.468053       -12.7364
  42   2.0000      -0.455198       -12.3866
  43   2.0000      -0.442089       -12.0298
  44   2.0000      -0.439400       -11.9567
  45   2.0000      -0.427101       -11.6220
  46   2.0000      -0.423708       -11.5297
  47   2.0000      -0.410509       -11.1705
  48   2.0000      -0.403453       -10.9785
  49   2.0000      -0.398865       -10.8537
  50   2.0000      -0.397712       -10.8223
  51   2.0000      -0.390902       -10.6370
  52   2.0000      -0.382530       -10.4092
  53   2.0000      -0.370590       -10.0843
  54   2.0000      -0.368349       -10.0233
  55   2.0000      -0.359974        -9.7954
  56   2.0000      -0.348378        -9.4798
  57   2.0000      -0.340850        -9.2750
  58   2.0000      -0.333872        -9.0851
  59   2.0000      -0.328322        -8.9341
  60   2.0000      -0.321429        -8.7465
  61   2.0000      -0.317480        -8.6391
  62   2.0000      -0.286286        -7.7902
  63   2.0000      -0.258630        -7.0377
  64   2.0000      -0.255220        -6.9449
  65   2.0000      -0.246108        -6.6970
  66   2.0000      -0.245473        -6.6797
  67   2.0000      -0.229329        -6.2403
  68   2.0000      -0.216785        -5.8990
  69   2.0000      -0.191187        -5.2025
  70   0.0000      -0.123620        -3.3639
  71   0.0000      -0.074270        -2.0210
  72   0.0000      -0.044121        -1.2006
  73   0.0000      -0.023119        -0.6291
  74   0.0000       0.028346         0.7713

MULLIKEN ATOMIC CHARGES
-----------------------
   0 C :   -0.133098
   1 C :   -0.129079
   2 C :   -0.230605
   3 C :    0.188266
   4 C :    0.140557
   5 C :   -0.217517
   6 C :    0.029448
   7 O :   -0.356382
   8 C :    0.193702
   9 C :   -0.249917
  10 C :   -0.173887
  11 C :   -0.291579
  12 C :    0.324453
  13 C :   -0.149265
  14 C :    0.014565
  15 O :   -0.441475
  16 N :    0.004979
  17 C :   -0.391097
  18 C :   -0.063108
  19 O :   -0.405818
  20 H :    0.148401
  21 H :    0.148007
  22 H :    0.182061
  23 H :    0.181852
  24 H :    0.184392
  25 H :    0.146827
  26 H :    0.164407
  27 H :    0.306089
  28 H :    0.158379
  29 H :    0.170557
  30 H :    0.124995
  31 H :    0.124827
  32 H :    0.296060
Sum of atomic charges:    0.0000000

LOEWDIN ATOMIC CHARGES
----------------------
   0 C :   -0.145062
   1 C :   -0.142148
   2 C :   -0.103489
   3 C :   -0.025349
   4 C :   -0.035268
   5 C :   -0.098125
   6 C :    0.268532
   7 O :   -0.483699
   8 C :   -0.027037
   9 C :   -0.122337
  10 C :   -0.130247
  11 C :   -0.123500
  12 C :    0.205799
  13 C :   -0.036715
  14 C :    0.269113
  15 O :   -0.544429
  16 N :   -0.668871
  17 C :   -0.014053
  18 C :    0.030197
  19 O :   -0.616929
  20 H :    0.170061
  21 H :    0.169878
  22 H :    0.192473
  23 H :    0.191588
  24 H :    0.192957
  25 H :    0.171385
  26 H :    0.186591
  27 H :    0.295320
  28 H :    0.190633
  29 H :    0.189042
  30 H :    0.164661
  31 H :    0.158906
  32 H :    0.270122

  Mayer bond orders larger than 0.100000
B(  0-C ,  1-C ) :   1.3217 B(  0-C ,  5-C ) :   1.3577 B(  0-C , 20-H ) :   0.9557
B(  1-C ,  2-C ) :   1.3508 B(  1-C , 21-H ) :   0.9555 B(  2-C ,  3-C ) :   1.3544
B(  2-C , 15-O ) :   0.1035 B(  2-C , 22-H ) :   0.9595 B(  3-C ,  4-C ) :   1.5248
B(  3-C , 14-C ) :   0.9192 B(  3-C , 15-O ) :  -0.2056 B(  4-C ,  5-C ) :   1.3489
B(  4-C ,  6-C ) :   0.8520 B(  4-C ,  7-O ) :  -0.2257 B(  5-C ,  7-O ) :   0.1091
B(  5-C , 23-H ) :   0.9633 B(  6-C ,  7-O ) :   2.0999 B(  6-C ,  8-C ) :   0.8656
B(  7-O ,  8-C ) :  -0.2181 B(  7-O ,  9-C ) :   0.1248 B(  8-C ,  9-C ) :   1.4091
B(  8-C , 13-C ) :   1.2713 B(  9-C , 10-C ) :   1.2325 B(  9-C , 24-H ) :   0.9655
B( 10-C , 11-C ) :   1.4142 B( 10-C , 25-H ) :   0.9690 B( 11-C , 12-C ) :   1.1294
B( 11-C , 26-H ) :   0.9355 B( 12-C , 13-C ) :   1.2150 B( 12-C , 14-C ) :  -0.1095
B( 12-C , 16-N ) :   1.2970 B( 13-C , 14-C ) :   0.9411 B( 13-C , 15-O ) :  -0.1318
B( 14-C , 15-O ) :   1.8906 B( 16-N , 17-C ) :   0.8343 B( 16-N , 27-H ) :   0.8308
B( 17-C , 18-C ) :   0.9366 B( 17-C , 28-H ) :   0.9667 B( 17-C , 29-H ) :   0.9683
B( 18-C , 19-O ) :   0.9444 B( 18-C , 30-H ) :   0.9617 B( 18-C , 31-H ) :   0.9637
B( 19-O , 32-H ) :   0.8996

Dispersion correction           -0.015748204
FINAL SINGLE POINT ENERGY      -897.784341744621

DIPOLE MOMENT
-------------

Method             : SCF
Type of density    : Electron Density
Multiplicity       :   1
Irrep              :   0
Energy             :  -897.7849666390118273 Eh
Relativity type    :
Basis              : AO
                                X                 Y                 Z
Electronic contribution:    -11.322365349       3.683494172       0.403889573
Nuclear contribution   :     12.794000053      -4.685979240      -0.634419435
                        -----------------------------------------
Total Dipole Moment    :      1.471634704      -1.002485069      -0.230529862
                        -----------------------------------------
Magnitude (a.u.)       :      1.795502446
Magnitude (Debye)      :      4.563804525

Rotational constants in cm-1:             0.022754             0.007531             0.005897
Rotational constants in MHz :           682.139062           225.765051           176.789282

                             ****ORCA TERMINATED NORMALLY****
TOTAL RUN TIME: 0 days 0 hours 2 minutes 7 seconds 362 msec
