                         Program Version 6.0.0  -   RELEASE  -
|  1> ! r2scan-3c def2/J RI DEFGRID2 scfconv6 printgap
|  2> %output
|  3>     printlevel normal
|  4> end
|  5> %cpcm
|  6>     smd true
|  7>     smdsolvent "water"
|  8> end
|  9> * xyz 0 1
| 10> C -4.6376373311 -0.9509115653 -0.3129621053
| 11> C -3.9726843646 -2.1552806882 -0.1280319671
| 12> C -2.6019534779 -2.1689249609 0.0503195876
| 13> C -1.8707617315 -0.9826776958 0.0465508969
| 14> C -2.5428580325 0.2301666438 -0.140392849
| 15> C -3.9252851322 0.2331488257 -0.3185579617
| 16> C -1.8076806655 1.5010477046 -0.1529328789
| 17> O -2.386548515 2.575120374 -0.3106989003
| 18> C -0.3489052595 1.4269460468 0.0299487926
| 19> C 0.3475249169 2.6221187922 -0.0105078786
| 20> C 1.7329368955 2.636292575 0.1332401586
| 21> C 2.4164103021 1.4687499414 0.3370937562
| 22> C 1.7458166635 0.2233826932 0.4112968995
| 23> C 0.3264714644 0.1990829947 0.2349693993
| 24> C -0.4087520193 -1.0455952074 0.2443877253
| 25> O 0.1250962785 -2.1591932769 0.4031915138
| 26> N 2.4131508044 -0.9097407413 0.6635975132
| 27> C 3.8354478179 -1.075394649 0.8149267809
| 28> C 4.5638063276 -1.2469094576 -0.5260621814
| 29> O 4.6592348896 0.0081593905 -1.1671391335
| 30> H -5.707156557 -0.9372398004 -0.4520743544
| 31> H -4.5240426211 -3.0824586878 -0.1227380518
| 32> H -2.0666029602 -3.0953770219 0.196734933
| 33> H -4.4156191105 1.1849647161 -0.4603509457
| 34> H -0.208783246 3.5334993777 -0.1680015085
| 35> H 2.2659749941 3.5723883412 0.0784339498
| 36> H 3.4900383291 1.4873095654 0.4090760162
| 37> H 1.8484364352 -1.7563470159 0.6175395141
| 38> H 3.9968239161 -1.9742103401 1.4108356138
| 39> H 4.2651197073 -0.2217418731 1.3411984852
| 40> H 4.0082501585 -1.9592566341 -1.1487378082
| 41> H 5.5657725823 -1.6493546194 -0.3293990627
| 42> H 5.0669749025 -0.0983415911 -2.0356698725
| 43> *
| 44>
| 45>                          ****END OF INPUT****

CARTESIAN COORDINATES (ANGSTROEM)
---------------------------------
  C     -4.637637   -0.950912   -0.312962
  C     -3.972684   -2.155281   -0.128032
  C     -2.601953   -2.168925    0.050320
  C     -1.870762   -0.982678    0.046551
  C     -2.542858    0.230167   -0.140393
  C     -3.925285    0.233149   -0.318558
  C     -1.807681    1.501048   -0.152933
  O     -2.386549    2.575120   -0.310699
  C     -0.348905    1.426946    0.029949
  C      0.347525    2.622119   -0.010508
  C      1.732937    2.636293    0.133240
  C      2.416410    1.468750    0.337094
  C      1.745817    0.223383    0.411297
  C      0.326471    0.199083    0.234969
  C     -0.408752   -1.045595    0.244388
  O      0.125096   -2.159193    0.403192
  N      2.413151   -0.909741    0.663598
  C      3.835448   -1.075395    0.814927
  C      4.563806   -1.246909   -0.526062
  O      4.659235    0.008159   -1.167139
  H     -5.707157   -0.937240   -0.452074
  H     -4.524043   -3.082459   -0.122738
  H     -2.066603   -3.095377    0.196735
  H     -4.415619    1.184965   -0.460351
  H     -0.208783    3.533499   -0.168002
  H      2.265975    3.572388    0.078434
  H      3.490038    1.487310    0.409076
  H      1.848436   -1.756347    0.617540
  H      3.996824   -1.974210    1.410836
  H      4.265120   -0.221742    1.341198
  H      4.008250   -1.959257   -1.148738
  H      5.565773   -1.649355   -0.329399
  H      5.066975   -0.098342   -2.035670

 Total Charge           Charge          ....    0
 Multiplicity           Mult            ....    1
 Number of Electrons    NEL             ....  140
 Basis Dimension        Dim             ....  465

ORBITAL ENERGIES
----------------

  NO   OCC          E(Eh)            E(eV)
   0   2.0000     -18.953920      -515.7624
   1   2.0000     -18.947955      -515.6001
   2   2.0000     -18.945624      -515.5366
   3   2.0000     -14.184971      -385.9927
   4   2.0000     -10.130880      -275.6753
   5   2.0000     -10.126688      -275.5612
   6   2.0000     -10.100623      -274.8519
   7   2.0000     -10.076132      -274.1855
   8   2.0000     -10.066061      -273.9115
   9   2.0000     -10.059702      -273.7384
  10   2.0000     -10.058950      -273.7180
  11   2.0000     -10.057757      -273.6855
  12   2.0000     -10.055403      -273.6214
  13   2.0000     -10.049545      -273.4620
  14   2.0000     -10.049396      -273.4580
  15   2.0000     -10.048851      -273.4431
  16   2.0000     -10.047969      -273.4191
  17   2.0000     -10.047681      -273.4113
  18   2.0000     -10.044218      -273.3171
  19   2.0000     -10.041604      -273.2459
  20   2.0000      -1.014789       -27.6138
  21   2.0000      -1.010447       -27.4957
  22   2.0000      -0.990748       -26.9596
  23   2.0000      -0.922768       -25.1098
  24   2.0000      -0.850720       -23.1493
  25   2.0000      -0.832158       -22.6442
  26   2.0000      -0.772460       -21.0197
  27   2.0000      -0.743185       -20.2231
  28   2.0000      -0.736634       -20.0448
  29   2.0000      -0.729562       -19.8524
  30   2.0000      -0.692980       -18.8569
  31   2.0000      -0.651253       -17.7215
  32   2.0000      -0.627917       -17.0865
  33   2.0000      -0.609972       -16.5982
  34   2.0000      -0.594420       -16.1750
  35   2.0000      -0.564141       -15.3511
  36   2.0000      -0.551397       -15.0043
  37   2.0000      -0.520152       -14.1540
  38   2.0000      -0.511959       -13.9311
  39   2.0000      -0.496399       -13.5077
  40   2.0000      -0.477621       -12.9967
  41   2.0000      -0.464773       -12.6471
  42   2.0000      -0.460581       -12.5330
  43   2.0000      -0.442187       -12.0325
  44   2.0000      -0.437642       -11.9089
  45   2.0000      -0.428039       -11.6475
  46   2.0000      -0.423226       -11.5166
  47   2.0000      -0.414744       -11.2858
  48   2.0000      -0.410663       -11.1747
  49   2.0000      -0.405967       -11.0469
  50   2.0000      -0.397836       -10.8257
  51   2.0000      -0.392063       -10.6686
  52   2.0000      -0.382341       -10.4040
  53   2.0000      -0.376958       -10.2576
  54   2.0000      -0.362296        -9.8586
  55   2.0000      -0.358961        -9.7678
  56   2.0000      -0.345082        -9.3902
  57   2.0000      -0.342851        -9.3294
  58   2.0000      -0.337830        -9.1928
  59   2.0000      -0.329742        -8.9727
  60   2.0000      -0.321964        -8.7611
  61   2.0000      -0.315765        -8.5924
  62   2.0000      -0.285701        -7.7743
  63   2.0000      -0.263977        -7.1832
  64   2.0000      -0.251610        -6.8466
  65   2.0000      -0.250982        -6.8296
  66   2.0000      -0.245447        -6.6790
  67   2.0000      -0.243652        -6.6301
  68   2.0000      -0.230210        -6.2643
  69   2.0000      -0.193874        -5.2756
  70   0.0000      -0.132932        -3.6173
  71   0.0000      -0.079836        -2.1725
  72   0.0000      -0.047971        -1.3053
  73   0.0000      -0.027365        -0.7446
  74   0.0000       0.025077         0.6824

MULLIKEN ATOMIC CHARGES
-----------------------
   0 C :   -0.170025
   1 C :   -0.159161
   2 C :   -0.243540
   3 C :    0.195346
   4 C :    0.139926
   5 C :   -0.228730
   6 C :    0.074030
   7 O :   -0.442762
   8 C :    0.186068
   9 C :   -0.257697
  10 C :   -0.204909
  11 C :   -0.303019
  12 C :    0.317571
  13 C :   -0.151884
  14 C :    0.035815
  15 O :   -0.503909
  16 N :   -0.018724
  17 C :   -0.383222
  18 C :   -0.089789
  19 O :   -0.477161
  20 H :    0.185104
  21 H :    0.185425
  22 H :    0.197124
  23 H :    0.195699
  24 H :    0.196633
  25 H :    0.183217
  26 H :    0.190397
  27 H :    0.339571
  28 H :    0.185073
  29 H :    0.191891
  30 H :    0.143139
  31 H :    0.148031
  32 H :    0.344470
Sum of atomic charges:    0.0000000

LOEWDIN ATOMIC CHARGES
----------------------
   0 C :   -0.139877
   1 C :   -0.132837
   2 C :   -0.109027
   3 C :   -0.027356
   4 C :   -0.042228
   5 C :   -0.102599
   6 C :    0.275675
   7 O :   -0.551857
   8 C :   -0.033759
   9 C :   -0.125957
  10 C :   -0.128050
  11 C :   -0.119167
  12 C :    0.202729
  13 C :   -0.041361
  14 C :    0.269633
  15 O :   -0.586481
  16 N :   -0.655846
  17 C :   -0.009023
  18 C :    0.037285
  19 O :   -0.644103
  20 H :    0.184155
  21 H :    0.184405
  22 H :    0.196565
  23 H :    0.194881
  24 H :    0.195501
  25 H :    0.185727
  26 H :    0.196738
  27 H :    0.298436
  28 H :    0.203145
  29 H :    0.196612
  30 H :    0.171303
  31 H :    0.169942
  32 H :    0.286795

  Mayer bond orders larger than 0.100000
B(  0-C ,  1-C ) :   1.3091 B(  0-C ,  5-C ) :   1.3542 B(  0-C , 20-H ) :   0.9604
B(  1-C ,  2-C ) :   1.3401 B(  1-C , 21-H ) :   0.9603 B(  2-C ,  3-C ) :   1.2986
B(  2-C , 15-O ) :   0.1003 B(  2-C , 22-H ) :   0.9724 B(  3-C ,  4-C ) :   1.5107
B(  3-C , 14-C ) :   0.9145 B(  3-C , 15-O ) :  -0.2026 B(  4-C ,  5-C ) :   1.2865
B(  4-C ,  6-C ) :   0.8633 B(  4-C ,  7-O ) :  -0.2245 B(  5-C ,  7-O ) :   0.1045
B(  5-C , 23-H ) :   0.9741 B(  6-C ,  7-O ) :   2.0594 B(  6-C ,  8-C ) :   0.8759
B(  7-O ,  8-C ) :  -0.2171 B(  7-O ,  9-C ) :   0.1227 B(  8-C ,  9-C ) :   1.3385
B(  8-C , 13-C ) :   1.2601 B(  9-C , 10-C ) :   1.2210 B(  9-C , 24-H ) :   0.9810
B( 10-C , 11-C ) :   1.4027 B( 10-C , 25-H ) :   0.9778 B( 11-C , 12-C ) :   1.0956
B( 11-C , 26-H ) :   0.9512 B( 12-C , 13-C ) :   1.1775 B( 12-C , 14-C ) :  -0.1037
B( 12-C , 16-N ) :   1.3190 B( 13-C , 14-C ) :   0.9616 B( 13-C , 15-O ) :  -0.1354
B( 14-C , 15-O ) :   1.8668 B( 16-N , 17-C ) :   0.8276 B( 16-N , 27-H ) :   0.8279
B( 17-C , 18-C ) :   0.9116 B( 17-C , 28-H ) :   0.9542 B( 17-C , 29-H ) :   0.9622
B( 18-C , 19-O ) :   0.9240 B( 18-C , 30-H ) :   0.9663 B( 18-C , 31-H ) :   0.9630
B( 19-O , 32-H ) :   0.8753

Dispersion correction           -0.015748204
FINAL SINGLE POINT ENERGY      -897.803814973683

DIPOLE MOMENT
-------------

Method             : SCF
Type of density    : Electron Density
Multiplicity       :   1
Irrep              :   0
Energy             :  -897.8044398680742688 Eh
Relativity type    :
Basis              : AO
                                X                 Y                 Z
Electronic contribution:    -10.723653652       3.186143524       0.447953904
Nuclear contribution   :     12.794000053      -4.685979240      -0.634419435
                        -----------------------------------------
Total Dipole Moment    :      2.070346401      -1.499835716      -0.186465531
                        -----------------------------------------
Magnitude (a.u.)       :      2.563320266
Magnitude (Debye)      :      6.515442326

Rotational constants in cm-1:             0.022754             0.007531             0.005897
Rotational constants in MHz :           682.139062           225.765051           176.789282

                             ****ORCA TERMINATED NORMALLY****
TOTAL RUN TIME: 0 days 0 hours 2 minutes 38 seconds 145 msec
