                         Program Version 6.0.0  -   RELEASE  -
|  1> ! pbe def2-sv(p) def2/J RI DEFGRID1 loosescf d4 GCP(DFT/SV(P)) printgap
|  2> %output
|  3>     printlevel normal
|  4> end
|  5> * xyz 0 1
|  6> C -3.9254643711 0.2009574142 -0.2226854099
|  7> C -2.6962445019 -0.3687319915 0.4750316942
|  8> C -1.404702762 0.1393814069 -0.1605981792
|  9> C -0.1692100578 -0.4215574747 0.5393365616
| 10> C 1.108226634 -0.0114155139 -0.1450473415
| 11> O 1.1988411763 0.3670253562 -1.2934539779
| 12> O 2.1477449861 -0.1347257747 0.6749236779
| 13> C 3.4579686773 0.1767094468 0.1891634252
| 14> H -3.9289186491 1.2867409198 -0.1618201128
| 15> H -3.9312776029 -0.0813639513 -1.2729296889
| 16> H -4.8349972822 -0.1731283287 0.2401231018
| 17> H -2.7143115807 -0.0867874107 1.5295536598
| 18> H -2.7212054774 -1.458770543 0.4201565591
| 19> H -1.378352789 1.2301608458 -0.1174453201
| 20> H -1.3719738145 -0.1433766653 -1.2146690076
| 21> H -0.1996764935 -1.5141806972 0.5275702617
| 22> H -0.1195705353 -0.1051207241 1.5814329239
| 23> H 3.4310284228 0.30303154 -0.893674989
| 24> H 4.1070077001 -0.6501878956 0.4676588492
| 25> H 3.7899092018 1.0976737011 0.6663202475
| 26> *
| 27>
| 28>                          ****END OF INPUT****

CARTESIAN COORDINATES (ANGSTROEM)
---------------------------------
  C     -3.925464    0.200957   -0.222685
  C     -2.696245   -0.368732    0.475032
  C     -1.404703    0.139381   -0.160598
  C     -0.169210   -0.421557    0.539337
  C      1.108227   -0.011416   -0.145047
  O      1.198841    0.367025   -1.293454
  O      2.147745   -0.134726    0.674924
  C      3.457969    0.176709    0.189163
  H     -3.928919    1.286741   -0.161820
  H     -3.931278   -0.081364   -1.272930
  H     -4.834997   -0.173128    0.240123
  H     -2.714312   -0.086787    1.529554
  H     -2.721205   -1.458771    0.420157
  H     -1.378353    1.230161   -0.117445
  H     -1.371974   -0.143377   -1.214669
  H     -0.199676   -1.514181    0.527570
  H     -0.119571   -0.105121    1.581433
  H      3.431028    0.303032   -0.893675
  H      4.107008   -0.650188    0.467659
  H      3.789909    1.097674    0.666320

 Total Charge           Charge          ....    0
 Multiplicity           Mult            ....    1
 Number of Electrons    NEL             ....   64
 Basis Dimension        Dim             ....  136

ORBITAL ENERGIES
----------------

  NO   OCC          E(Eh)            E(eV)
   0   2.0000     -18.796832      -511.4878
   1   2.0000     -18.734572      -509.7936
   2   2.0000     -10.003478      -272.2085
   3   2.0000      -9.937807      -270.4215
   4   2.0000      -9.895750      -269.2771
   5   2.0000      -9.884939      -268.9829
   6   2.0000      -9.884315      -268.9659
   7   2.0000      -9.873232      -268.6643
   8   2.0000      -1.002485       -27.2790
   9   2.0000      -0.909355       -24.7448
  10   2.0000      -0.728207       -19.8155
  11   2.0000      -0.686092       -18.6695
  12   2.0000      -0.645735       -17.5714
  13   2.0000      -0.575633       -15.6638
  14   2.0000      -0.519970       -14.1491
  15   2.0000      -0.499287       -13.5863
  16   2.0000      -0.444330       -12.0908
  17   2.0000      -0.443381       -12.0650
  18   2.0000      -0.422282       -11.4909
  19   2.0000      -0.411199       -11.1893
  20   2.0000      -0.386606       -10.5201
  21   2.0000      -0.377223       -10.2648
  22   2.0000      -0.369973       -10.0675
  23   2.0000      -0.344093        -9.3632
  24   2.0000      -0.335483        -9.1289
  25   2.0000      -0.309709        -8.4276
  26   2.0000      -0.301387        -8.2012
  27   2.0000      -0.295289        -8.0352
  28   2.0000      -0.285945        -7.7810
  29   2.0000      -0.284923        -7.7531
  30   2.0000      -0.254825        -6.9341
  31   2.0000      -0.220782        -6.0078
  32   0.0000      -0.016631        -0.4526
  33   0.0000       0.037798         1.0285
  34   0.0000       0.055828         1.5192
  35   0.0000       0.067871         1.8469
  36   0.0000       0.072361         1.9690

MULLIKEN ATOMIC CHARGES
-----------------------
   0 C :   -0.255122
   1 C :   -0.175607
   2 C :   -0.202387
   3 C :   -0.152370
   4 C :    0.122342
   5 O :   -0.203108
   6 O :   -0.243695
   7 C :   -0.130146
   8 H :    0.097880
   9 H :    0.098962
  10 H :    0.101197
  11 H :    0.081536
  12 H :    0.081645
  13 H :    0.089130
  14 H :    0.100059
  15 H :    0.110950
  16 H :    0.102694
  17 H :    0.133017
  18 H :    0.121640
  19 H :    0.121384
Sum of atomic charges:   -0.0000000

LOEWDIN ATOMIC CHARGES
----------------------
   0 C :   -0.339023
   1 C :   -0.233615
   2 C :   -0.223300
   3 C :   -0.248594
   4 C :    0.038368
   5 O :   -0.168087
   6 O :   -0.078646
   7 C :   -0.209033
   8 H :    0.117447
   9 H :    0.118053
  10 H :    0.118387
  11 H :    0.113115
  12 H :    0.113596
  13 H :    0.118798
  14 H :    0.123011
  15 H :    0.142425
  16 H :    0.133274
  17 H :    0.123912
  18 H :    0.120233
  19 H :    0.119680

  Mayer bond orders larger than 0.100000
B(  0-C ,  1-C ) :   1.1625 B(  0-C ,  8-H ) :   0.9543 B(  0-C ,  9-H ) :   0.9540
B(  0-C , 10-H ) :   0.9531 B(  1-C ,  2-C ) :   1.1322 B(  1-C , 11-H ) :   0.9238
B(  1-C , 12-H ) :   0.9249 B(  2-C ,  3-C ) :   1.1293 B(  2-C , 13-H ) :   0.9292
B(  2-C , 14-H ) :   0.9163 B(  3-C ,  4-C ) :   1.0082 B(  3-C , 15-H ) :   0.8858
B(  3-C , 16-H ) :   0.9056 B(  4-C ,  5-O ) :   2.0659 B(  4-C ,  6-O ) :   1.2159
B(  6-O ,  7-C ) :   0.9366 B(  7-C , 17-H ) :   0.9301 B(  7-C , 18-H ) :   0.9613
B(  7-C , 19-H ) :   0.9608

Dispersion correction           -0.014365965
FINAL SINGLE POINT ENERGY      -385.452787039105

DIPOLE MOMENT
-------------

Method             : SCF
Type of density    : Electron Density
Multiplicity       :   1
Irrep              :   0
Energy             :  -385.5282028348978542 Eh
Relativity type    :
Basis              : AO
                                X                 Y                 Z
Electronic contribution:      9.460462474       0.082215901      -1.047143365
Nuclear contribution   :     -9.212275857      -0.273604689       1.653519108
                        -----------------------------------------
Total Dipole Moment    :      0.248186616      -0.191388788       0.606375744
                        -----------------------------------------
Magnitude (a.u.)       :      0.682581722
Magnitude (Debye)      :      1.734984857

Rotational constants in cm-1:             0.246451             0.024826             0.023198
Rotational constants in MHz :          7388.410836           744.275773           695.445570

                             ****ORCA TERMINATED NORMALLY****
TOTAL RUN TIME: 0 days 0 hours 0 minutes 9 seconds 494 msec
