                         Program Version 6.0.0  -   RELEASE  -
|  1> ! r2scan-3c def2/J RI DEFGRID2 scfconv6 printgap
|  2> %output
|  3>     printlevel normal
|  4> end
|  5> * xyz 0 1
|  6> C -4.6000483547 -1.1708629879 0.0925148551
|  7> C -3.814890273 -2.3038641002 -0.0706997397
|  8> C -2.4407345316 -2.1862537428 -0.1666264063
|  9> C -1.8260497852 -0.9374815355 -0.099673913
| 10> C -2.6192397526 0.2031361068 0.0669233706
| 11> C -4.0039628907 0.0740395596 0.1606481097
| 12> C -2.0088679065 1.5355839185 0.1436704234
| 13> O -2.6916428488 2.5480324337 0.2864320717
| 14> C -0.5398286764 1.6015172607 0.0450264302
| 15> C 0.0339371948 2.8574288884 0.1373729902
| 16> C 1.4151517825 3.0079406589 0.0473815032
| 17> C 2.2167424819 1.9130771877 -0.1297286283
| 18> C 1.6795196097 0.6052817328 -0.2198533186
| 19> C 0.2591903278 0.4469259788 -0.1335668787
| 20> C -0.356218952 -0.8601495688 -0.2161837079
| 21> O 0.2857879103 -1.9140574232 -0.3783285819
| 22> N 2.4624212046 -0.4636654214 -0.4077772719
| 23> C 3.8970832208 -0.5528474569 -0.3892915577
| 24> C 4.341258472 -1.6630137328 0.5812121268
| 25> O 5.7218017941 -1.9201534403 0.5015975189
| 26> H -5.6724325539 -1.2598093361 0.1661380018
| 27> H -4.2750786761 -3.2780276572 -0.1238269311
| 28> H -1.8131198982 -3.0555982872 -0.2955658926
| 29> H -4.5894103888 0.9727296042 0.2870902938
| 30> H -0.6148726202 3.7087019772 0.2740972107
| 31> H 1.850424346 3.9927587933 0.1110209271
| 32> H 3.2804682402 2.0541990868 -0.2180588014
| 33> H 1.9634863938 -1.3493408398 -0.4878740319
| 34> H 4.3414466951 0.3930883625 -0.0816446049
| 35> H 4.2659655194 -0.8050713088 -1.390199785
| 36> H 3.8497606297 -2.6016113361 0.3131845228
| 37> H 4.0488260551 -1.4000673856 1.6058002954
| 38> H 6.2149953602 -1.1434244566 0.8010406079
| 39> *
| 40>
| 41>                          ****END OF INPUT****

CARTESIAN COORDINATES (ANGSTROEM)
---------------------------------
  C     -4.600048   -1.170863    0.092515
  C     -3.814890   -2.303864   -0.070700
  C     -2.440735   -2.186254   -0.166626
  C     -1.826050   -0.937482   -0.099674
  C     -2.619240    0.203136    0.066923
  C     -4.003963    0.074040    0.160648
  C     -2.008868    1.535584    0.143670
  O     -2.691643    2.548032    0.286432
  C     -0.539829    1.601517    0.045026
  C      0.033937    2.857429    0.137373
  C      1.415152    3.007941    0.047382
  C      2.216742    1.913077   -0.129729
  C      1.679520    0.605282   -0.219853
  C      0.259190    0.446926   -0.133567
  C     -0.356219   -0.860150   -0.216184
  O      0.285788   -1.914057   -0.378329
  N      2.462421   -0.463665   -0.407777
  C      3.897083   -0.552847   -0.389292
  C      4.341258   -1.663014    0.581212
  O      5.721802   -1.920153    0.501598
  H     -5.672433   -1.259809    0.166138
  H     -4.275079   -3.278028   -0.123827
  H     -1.813120   -3.055598   -0.295566
  H     -4.589410    0.972730    0.287090
  H     -0.614873    3.708702    0.274097
  H      1.850424    3.992759    0.111021
  H      3.280468    2.054199   -0.218059
  H      1.963486   -1.349341   -0.487874
  H      4.341447    0.393088   -0.081645
  H      4.265966   -0.805071   -1.390200
  H      3.849761   -2.601611    0.313185
  H      4.048826   -1.400067    1.605800
  H      6.214995   -1.143424    0.801041

 Total Charge           Charge          ....    0
 Multiplicity           Mult            ....    1
 Number of Electrons    NEL             ....  140
 Basis Dimension        Dim             ....  465

ORBITAL ENERGIES
----------------

  NO   OCC          E(Eh)            E(eV)
   0   2.0000     -18.967411      -516.1295
   1   2.0000     -18.943291      -515.4732
   2   2.0000     -18.938129      -515.3327
   3   2.0000     -14.192942      -386.2096
   4   2.0000     -10.125482      -275.5284
   5   2.0000     -10.122333      -275.4427
   6   2.0000     -10.107420      -275.0369
   7   2.0000     -10.094912      -274.6965
   8   2.0000     -10.084878      -274.4235
   9   2.0000     -10.059843      -273.7422
  10   2.0000     -10.059734      -273.7393
  11   2.0000     -10.058422      -273.7036
  12   2.0000     -10.057310      -273.6733
  13   2.0000     -10.056865      -273.6612
  14   2.0000     -10.054255      -273.5902
  15   2.0000     -10.053286      -273.5638
  16   2.0000     -10.052960      -273.5549
  17   2.0000     -10.050705      -273.4936
  18   2.0000     -10.049918      -273.4722
  19   2.0000     -10.041658      -273.2474
  20   2.0000      -1.007735       -27.4219
  21   2.0000      -1.005035       -27.3484
  22   2.0000      -1.002431       -27.2775
  23   2.0000      -0.932462       -25.3736
  24   2.0000      -0.851399       -23.1677
  25   2.0000      -0.835770       -22.7425
  26   2.0000      -0.775548       -21.1037
  27   2.0000      -0.752587       -20.4789
  28   2.0000      -0.737540       -20.0695
  29   2.0000      -0.733213       -19.9517
  30   2.0000      -0.697901       -18.9908
  31   2.0000      -0.652278       -17.7494
  32   2.0000      -0.634523       -17.2662
  33   2.0000      -0.620057       -16.8726
  34   2.0000      -0.604341       -16.4450
  35   2.0000      -0.573926       -15.6173
  36   2.0000      -0.554198       -15.0805
  37   2.0000      -0.523361       -14.2414
  38   2.0000      -0.520469       -14.1627
  39   2.0000      -0.498037       -13.5523
  40   2.0000      -0.492801       -13.4098
  41   2.0000      -0.469439       -12.7741
  42   2.0000      -0.461766       -12.5653
  43   2.0000      -0.449735       -12.2379
  44   2.0000      -0.442950       -12.0533
  45   2.0000      -0.432210       -11.7610
  46   2.0000      -0.422559       -11.4984
  47   2.0000      -0.419532       -11.4160
  48   2.0000      -0.407653       -11.0928
  49   2.0000      -0.404134       -10.9970
  50   2.0000      -0.403333       -10.9753
  51   2.0000      -0.399555       -10.8724
  52   2.0000      -0.389795       -10.6069
  53   2.0000      -0.379900       -10.3376
  54   2.0000      -0.373147       -10.1539
  55   2.0000      -0.363996        -9.9048
  56   2.0000      -0.355281        -9.6677
  57   2.0000      -0.347057        -9.4439
  58   2.0000      -0.336581        -9.1588
  59   2.0000      -0.332315        -9.0428
  60   2.0000      -0.323443        -8.8013
  61   2.0000      -0.312902        -8.5145
  62   2.0000      -0.297564        -8.0971
  63   2.0000      -0.261951        -7.1281
  64   2.0000      -0.258633        -7.0378
  65   2.0000      -0.252758        -6.8779
  66   2.0000      -0.250592        -6.8189
  67   2.0000      -0.235306        -6.4030
  68   2.0000      -0.222883        -6.0649
  69   2.0000      -0.197675        -5.3790
  70   0.0000      -0.130082        -3.5397
  71   0.0000      -0.079659        -2.1676
  72   0.0000      -0.051148        -1.3918
  73   0.0000      -0.029186        -0.7942
  74   0.0000       0.021868         0.5951

MULLIKEN ATOMIC CHARGES
-----------------------
   0 C :   -0.131133
   1 C :   -0.127080
   2 C :   -0.223521
   3 C :    0.186575
   4 C :    0.136229
   5 C :   -0.215718
   6 C :    0.036724
   7 O :   -0.354154
   8 C :    0.191770
   9 C :   -0.249824
  10 C :   -0.125538
  11 C :   -0.331299
  12 C :    0.307712
  13 C :   -0.136753
  14 C :    0.023826
  15 O :   -0.441162
  16 N :   -0.061913
  17 C :   -0.202228
  18 C :   -0.171155
  19 O :   -0.406888
  20 H :    0.149084
  21 H :    0.148886
  22 H :    0.182441
  23 H :    0.181866
  24 H :    0.185509
  25 H :    0.147375
  26 H :    0.133159
  27 H :    0.300671
  28 H :    0.116179
  29 H :    0.166634
  30 H :    0.141706
  31 H :    0.141874
  32 H :    0.300146
Sum of atomic charges:    0.0000000

LOEWDIN ATOMIC CHARGES
----------------------
   0 C :   -0.143157
   1 C :   -0.139828
   2 C :   -0.101576
   3 C :   -0.025356
   4 C :   -0.035869
   5 C :   -0.096796
   6 C :    0.269787
   7 O :   -0.479688
   8 C :   -0.023183
   9 C :   -0.124165
  10 C :   -0.126934
  11 C :   -0.140864
  12 C :    0.206718
  13 C :   -0.036116
  14 C :    0.270437
  15 O :   -0.541035
  16 N :   -0.682939
  17 C :   -0.014457
  18 C :    0.036643
  19 O :   -0.604363
  20 H :    0.170684
  21 H :    0.170630
  22 H :    0.193157
  23 H :    0.191825
  24 H :    0.194067
  25 H :    0.171927
  26 H :    0.170917
  27 H :    0.297428
  28 H :    0.175694
  29 H :    0.184803
  30 H :    0.181650
  31 H :    0.162158
  32 H :    0.267805

  Mayer bond orders larger than 0.100000
B(  0-C ,  1-C ) :   1.3213 B(  0-C ,  5-C ) :   1.3569 B(  0-C , 20-H ) :   0.9558
B(  1-C ,  2-C ) :   1.3499 B(  1-C , 21-H ) :   0.9557 B(  2-C ,  3-C ) :   1.3528
B(  2-C , 15-O ) :   0.1025 B(  2-C , 22-H ) :   0.9603 B(  3-C ,  4-C ) :   1.5204
B(  3-C , 14-C ) :   0.9278 B(  3-C , 15-O ) :  -0.2013 B(  4-C ,  5-C ) :   1.3494
B(  4-C ,  6-C ) :   0.8554 B(  4-C ,  7-O ) :  -0.2241 B(  5-C ,  7-O ) :   0.1083
B(  5-C , 23-H ) :   0.9637 B(  6-C ,  7-O ) :   2.1005 B(  6-C ,  8-C ) :   0.8649
B(  7-O ,  8-C ) :  -0.2172 B(  7-O ,  9-C ) :   0.1239 B(  8-C ,  9-C ) :   1.4045
B(  8-C , 13-C ) :   1.2779 B(  9-C , 10-C ) :   1.2536 B(  9-C , 24-H ) :   0.9661
B( 10-C , 11-C ) :   1.4031 B( 10-C , 25-H ) :   0.9641 B( 11-C , 12-C ) :   1.0991
B( 11-C , 26-H ) :   0.9551 B( 12-C , 13-C ) :   1.2730 B( 12-C , 14-C ) :  -0.1085
B( 12-C , 16-N ) :   1.2898 B( 13-C , 14-C ) :   0.9376 B( 13-C , 15-O ) :  -0.1183
B( 14-C , 15-O ) :   1.8748 B( 16-N , 17-C ) :   0.8501 B( 16-N , 27-H ) :   0.8310
B( 17-C , 18-C ) :   0.9229 B( 17-C , 28-H ) :   0.9499 B( 17-C , 29-H ) :   0.9457
B( 18-C , 19-O ) :   0.9744 B( 18-C , 30-H ) :   0.9679 B( 18-C , 31-H ) :   0.9734
B( 19-O , 32-H ) :   0.8928

Dispersion correction           -0.015465233
FINAL SINGLE POINT ENERGY      -897.781820961600

DIPOLE MOMENT
-------------

Method             : SCF
Type of density    : Electron Density
Multiplicity       :   1
Irrep              :   0
Energy             :  -897.7826552507565339 Eh
Relativity type    :
Basis              : AO
                                X                 Y                 Z
Electronic contribution:    -11.288246531       3.586417649      -0.766155903
Nuclear contribution   :     12.118565942      -3.559881660       0.905599283
                        -----------------------------------------
Total Dipole Moment    :      0.830319411       0.026535989       0.139443380
                        -----------------------------------------
Magnitude (a.u.)       :      0.842365087
Magnitude (Debye)      :      2.141121892

Rotational constants in cm-1:             0.020464             0.007161             0.005387
Rotational constants in MHz :           613.508660           214.693895           161.511134

                             ****ORCA TERMINATED NORMALLY****
TOTAL RUN TIME: 0 days 0 hours 1 minutes 58 seconds 932 msec
