                         Program Version 6.0.0  -   RELEASE  -
|  1> ! r2scan-3c def2/J RI DEFGRID2 scfconv6 printgap
|  2> %output
|  3>     printlevel normal
|  4> end
|  5> %cpcm
|  6>     smd true
|  7>     smdsolvent "water"
|  8> end
|  9> * xyz 0 1
| 10> C -4.6000483547 -1.1708629879 0.0925148551
| 11> C -3.814890273 -2.3038641002 -0.0706997397
| 12> C -2.4407345316 -2.1862537428 -0.1666264063
| 13> C -1.8260497852 -0.9374815355 -0.099673913
| 14> C -2.6192397526 0.2031361068 0.0669233706
| 15> C -4.0039628907 0.0740395596 0.1606481097
| 16> C -2.0088679065 1.5355839185 0.1436704234
| 17> O -2.6916428488 2.5480324337 0.2864320717
| 18> C -0.5398286764 1.6015172607 0.0450264302
| 19> C 0.0339371948 2.8574288884 0.1373729902
| 20> C 1.4151517825 3.0079406589 0.0473815032
| 21> C 2.2167424819 1.9130771877 -0.1297286283
| 22> C 1.6795196097 0.6052817328 -0.2198533186
| 23> C 0.2591903278 0.4469259788 -0.1335668787
| 24> C -0.356218952 -0.8601495688 -0.2161837079
| 25> O 0.2857879103 -1.9140574232 -0.3783285819
| 26> N 2.4624212046 -0.4636654214 -0.4077772719
| 27> C 3.8970832208 -0.5528474569 -0.3892915577
| 28> C 4.341258472 -1.6630137328 0.5812121268
| 29> O 5.7218017941 -1.9201534403 0.5015975189
| 30> H -5.6724325539 -1.2598093361 0.1661380018
| 31> H -4.2750786761 -3.2780276572 -0.1238269311
| 32> H -1.8131198982 -3.0555982872 -0.2955658926
| 33> H -4.5894103888 0.9727296042 0.2870902938
| 34> H -0.6148726202 3.7087019772 0.2740972107
| 35> H 1.850424346 3.9927587933 0.1110209271
| 36> H 3.2804682402 2.0541990868 -0.2180588014
| 37> H 1.9634863938 -1.3493408398 -0.4878740319
| 38> H 4.3414466951 0.3930883625 -0.0816446049
| 39> H 4.2659655194 -0.8050713088 -1.390199785
| 40> H 3.8497606297 -2.6016113361 0.3131845228
| 41> H 4.0488260551 -1.4000673856 1.6058002954
| 42> H 6.2149953602 -1.1434244566 0.8010406079
| 43> *
| 44>
| 45>                          ****END OF INPUT****

CARTESIAN COORDINATES (ANGSTROEM)
---------------------------------
  C     -4.600048   -1.170863    0.092515
  C     -3.814890   -2.303864   -0.070700
  C     -2.440735   -2.186254   -0.166626
  C     -1.826050   -0.937482   -0.099674
  C     -2.619240    0.203136    0.066923
  C     -4.003963    0.074040    0.160648
  C     -2.008868    1.535584    0.143670
  O     -2.691643    2.548032    0.286432
  C     -0.539829    1.601517    0.045026
  C      0.033937    2.857429    0.137373
  C      1.415152    3.007941    0.047382
  C      2.216742    1.913077   -0.129729
  C      1.679520    0.605282   -0.219853
  C      0.259190    0.446926   -0.133567
  C     -0.356219   -0.860150   -0.216184
  O      0.285788   -1.914057   -0.378329
  N      2.462421   -0.463665   -0.407777
  C      3.897083   -0.552847   -0.389292
  C      4.341258   -1.663014    0.581212
  O      5.721802   -1.920153    0.501598
  H     -5.672433   -1.259809    0.166138
  H     -4.275079   -3.278028   -0.123827
  H     -1.813120   -3.055598   -0.295566
  H     -4.589410    0.972730    0.287090
  H     -0.614873    3.708702    0.274097
  H      1.850424    3.992759    0.111021
  H      3.280468    2.054199   -0.218059
  H      1.963486   -1.349341   -0.487874
  H      4.341447    0.393088   -0.081645
  H      4.265966   -0.805071   -1.390200
  H      3.849761   -2.601611    0.313185
  H      4.048826   -1.400067    1.605800
  H      6.214995   -1.143424    0.801041

 Total Charge           Charge          ....    0
 Multiplicity           Mult            ....    1
 Number of Electrons    NEL             ....  140
 Basis Dimension        Dim             ....  465

ORBITAL ENERGIES
----------------

  NO   OCC          E(Eh)            E(eV)
   0   2.0000     -18.957337      -515.8554
   1   2.0000     -18.948800      -515.6231
   2   2.0000     -18.946529      -515.5613
   3   2.0000     -14.187447      -386.0601
   4   2.0000     -10.131621      -275.6954
   5   2.0000     -10.127531      -275.5841
   6   2.0000     -10.103105      -274.9195
   7   2.0000     -10.077497      -274.2226
   8   2.0000     -10.064654      -273.8731
   9   2.0000     -10.060166      -273.7510
  10   2.0000     -10.060028      -273.7473
  11   2.0000     -10.058181      -273.6970
  12   2.0000     -10.056590      -273.6537
  13   2.0000     -10.050183      -273.4794
  14   2.0000     -10.049917      -273.4721
  15   2.0000     -10.049680      -273.4657
  16   2.0000     -10.048228      -273.4262
  17   2.0000     -10.047977      -273.4194
  18   2.0000     -10.046348      -273.3750
  19   2.0000     -10.041881      -273.2535
  20   2.0000      -1.015926       -27.6448
  21   2.0000      -1.011579       -27.5265
  22   2.0000      -0.993869       -27.0446
  23   2.0000      -0.924960       -25.1694
  24   2.0000      -0.851249       -23.1637
  25   2.0000      -0.833232       -22.6734
  26   2.0000      -0.773194       -21.0397
  27   2.0000      -0.744331       -20.2543
  28   2.0000      -0.737005       -20.0549
  29   2.0000      -0.730370       -19.8744
  30   2.0000      -0.689505       -18.7624
  31   2.0000      -0.651521       -17.7288
  32   2.0000      -0.627872       -17.0853
  33   2.0000      -0.613446       -16.6927
  34   2.0000      -0.597006       -16.2454
  35   2.0000      -0.568488       -15.4694
  36   2.0000      -0.552360       -15.0305
  37   2.0000      -0.520322       -14.1587
  38   2.0000      -0.515066       -14.0157
  39   2.0000      -0.488801       -13.3009
  40   2.0000      -0.481862       -13.1121
  41   2.0000      -0.464016       -12.6265
  42   2.0000      -0.460772       -12.5382
  43   2.0000      -0.444933       -12.1072
  44   2.0000      -0.436098       -11.8668
  45   2.0000      -0.427071       -11.6212
  46   2.0000      -0.422784       -11.5045
  47   2.0000      -0.417605       -11.3636
  48   2.0000      -0.406660       -11.0658
  49   2.0000      -0.404572       -11.0090
  50   2.0000      -0.399174       -10.8621
  51   2.0000      -0.395177       -10.7533
  52   2.0000      -0.390175       -10.6172
  53   2.0000      -0.379733       -10.3331
  54   2.0000      -0.369814       -10.0632
  55   2.0000      -0.359545        -9.7837
  56   2.0000      -0.348179        -9.4744
  57   2.0000      -0.342881        -9.3303
  58   2.0000      -0.337475        -9.1831
  59   2.0000      -0.328824        -8.9477
  60   2.0000      -0.322125        -8.7655
  61   2.0000      -0.299304        -8.1445
  62   2.0000      -0.294563        -8.0155
  63   2.0000      -0.264714        -7.2032
  64   2.0000      -0.252187        -6.8624
  65   2.0000      -0.251247        -6.8368
  66   2.0000      -0.250763        -6.8236
  67   2.0000      -0.244123        -6.6429
  68   2.0000      -0.230972        -6.2851
  69   2.0000      -0.194367        -5.2890
  70   0.0000      -0.133639        -3.6365
  71   0.0000      -0.080152        -2.1810
  72   0.0000      -0.048948        -1.3319
  73   0.0000      -0.027680        -0.7532
  74   0.0000       0.024066         0.6549

MULLIKEN ATOMIC CHARGES
-----------------------
   0 C :   -0.169848
   1 C :   -0.158786
   2 C :   -0.238874
   3 C :    0.195798
   4 C :    0.136125
   5 C :   -0.228234
   6 C :    0.079766
   7 O :   -0.441696
   8 C :    0.181911
   9 C :   -0.253938
  10 C :   -0.172288
  11 C :   -0.319483
  12 C :    0.298971
  13 C :   -0.143069
  14 C :    0.041011
  15 O :   -0.504645
  16 N :   -0.089238
  17 C :   -0.205441
  18 C :   -0.173424
  19 O :   -0.491024
  20 H :    0.185285
  21 H :    0.185466
  22 H :    0.197479
  23 H :    0.195786
  24 H :    0.197415
  25 H :    0.184211
  26 H :    0.177048
  27 H :    0.337156
  28 H :    0.159090
  29 H :    0.172097
  30 H :    0.156751
  31 H :    0.152571
  32 H :    0.356054
Sum of atomic charges:    0.0000000

LOEWDIN ATOMIC CHARGES
----------------------
   0 C :   -0.139411
   1 C :   -0.132253
   2 C :   -0.108446
   3 C :   -0.027131
   4 C :   -0.042467
   5 C :   -0.102010
   6 C :    0.276450
   7 O :   -0.549814
   8 C :   -0.032179
   9 C :   -0.126889
  10 C :   -0.124980
  11 C :   -0.120999
  12 C :    0.206105
  13 C :   -0.041057
  14 C :    0.270343
  15 O :   -0.585597
  16 N :   -0.667830
  17 C :   -0.006818
  18 C :    0.037334
  19 O :   -0.636989
  20 H :    0.184267
  21 H :    0.184474
  22 H :    0.196817
  23 H :    0.194957
  24 H :    0.195945
  25 H :    0.186145
  26 H :    0.189542
  27 H :    0.300013
  28 H :    0.192380
  29 H :    0.189565
  30 H :    0.184402
  31 H :    0.168591
  32 H :    0.287541

  Mayer bond orders larger than 0.100000
B(  0-C ,  1-C ) :   1.3092 B(  0-C ,  5-C ) :   1.3540 B(  0-C , 20-H ) :   0.9604
B(  1-C ,  2-C ) :   1.3397 B(  1-C , 21-H ) :   0.9603 B(  2-C ,  3-C ) :   1.2973
B(  2-C , 15-O ) :   0.1002 B(  2-C , 22-H ) :   0.9724 B(  3-C ,  4-C ) :   1.5096
B(  3-C , 14-C ) :   0.9216 B(  3-C , 15-O ) :  -0.2008 B(  4-C ,  5-C ) :   1.2874
B(  4-C ,  6-C ) :   0.8649 B(  4-C ,  7-O ) :  -0.2245 B(  5-C ,  7-O ) :   0.1045
B(  5-C , 23-H ) :   0.9741 B(  6-C ,  7-O ) :   2.0606 B(  6-C ,  8-C ) :   0.8762
B(  7-O ,  8-C ) :  -0.2166 B(  7-O ,  9-C ) :   0.1226 B(  8-C ,  9-C ) :   1.3358
B(  8-C , 13-C ) :   1.2636 B(  9-C , 10-C ) :   1.2319 B(  9-C , 24-H ) :   0.9791
B( 10-C , 11-C ) :   1.3974 B( 10-C , 25-H ) :   0.9743 B( 11-C , 12-C ) :   1.0882
B( 11-C , 26-H ) :   0.9635 B( 12-C , 13-C ) :   1.2315 B( 12-C , 16-N ) :   1.3046
B( 13-C , 14-C ) :   0.9562 B( 13-C , 15-O ) :  -0.1233 B( 14-C , 15-O ) :   1.8541
B( 16-N , 17-C ) :   0.8583 B( 16-N , 27-H ) :   0.8266 B( 17-C , 18-C ) :   0.9132
B( 17-C , 28-H ) :   0.9450 B( 17-C , 29-H ) :   0.9388 B( 18-C , 19-O ) :   0.9692
B( 18-C , 30-H ) :   0.9673 B( 18-C , 31-H ) :   0.9659 B( 19-O , 32-H ) :   0.8640

Dispersion correction           -0.015465233
FINAL SINGLE POINT ENERGY      -897.803019323430

DIPOLE MOMENT
-------------

Method             : SCF
Type of density    : Electron Density
Multiplicity       :   1
Irrep              :   0
Energy             :  -897.8038536125868632 Eh
Relativity type    :
Basis              : AO
                                X                 Y                 Z
Electronic contribution:    -10.662647121       3.665086183      -0.731920330
Nuclear contribution   :     12.118565942      -3.559881660       0.905599283
                        -----------------------------------------
Total Dipole Moment    :      1.455918821       0.105204524       0.173678953
                        -----------------------------------------
Magnitude (a.u.)       :      1.470010879
Magnitude (Debye)      :      3.736470713

Rotational constants in cm-1:             0.020464             0.007161             0.005387
Rotational constants in MHz :           613.508660           214.693895           161.511134

                             ****ORCA TERMINATED NORMALLY****
TOTAL RUN TIME: 0 days 0 hours 2 minutes 35 seconds 899 msec
