                         Program Version 6.0.0  -   RELEASE  -
|  1> ! r2scan-3c def2/J RI DEFGRID2 scfconv6 printgap
|  2> %output
|  3>     printlevel normal
|  4> end
|  5> * xyz 0 1
|  6> C -2.4019673475 -1.3676471165 -0.2971517245
|  7> C -2.5425505269 0.1040630433 0.0723397263
|  8> C -1.3100147251 0.6164255668 0.8242246514
|  9> C -0.0993301031 0.6256528736 -0.0730021447
| 10> O -0.0437092134 1.1557825482 -1.1641953901
| 11> O 0.9219193 -0.0214708127 0.4701167572
| 12> C 2.150373983 -0.0852109528 -0.2740410614
| 13> C 3.1339186552 -0.9332378773 0.5085234099
| 14> H -2.2508281656 -1.9728431653 0.5934470068
| 15> H -3.2956705586 -1.7174121441 -0.8067835244
| 16> H -1.551359747 -1.5125998559 -0.9606922226
| 17> H -3.421588274 0.2419156985 0.7022346213
| 18> H -2.6704716652 0.6996153313 -0.833542213
| 19> H -1.0936971382 -0.0035141317 1.6933491269
| 20> H -1.4837502822 1.6443328266 1.147208497
| 21> H 1.9362577165 -0.5124678392 -1.2593802241
| 22> H 2.5186729599 0.9356402297 -0.4194607422
| 23> H 3.3115617935 -0.4903073105 1.4839203367
| 24> H 2.7353418489 -1.9340437088 0.6456225069
| 25> H 4.0707419325 -0.9913867992 -0.0355733595
| 26> *
| 27>
| 28>                          ****END OF INPUT****

CARTESIAN COORDINATES (ANGSTROEM)
---------------------------------
  C     -2.401967   -1.367647   -0.297152
  C     -2.542551    0.104063    0.072340
  C     -1.310015    0.616426    0.824225
  C     -0.099330    0.625653   -0.073002
  O     -0.043709    1.155783   -1.164195
  O      0.921919   -0.021471    0.470117
  C      2.150374   -0.085211   -0.274041
  C      3.133919   -0.933238    0.508523
  H     -2.250828   -1.972843    0.593447
  H     -3.295671   -1.717412   -0.806784
  H     -1.551360   -1.512600   -0.960692
  H     -3.421588    0.241916    0.702235
  H     -2.670472    0.699615   -0.833542
  H     -1.093697   -0.003514    1.693349
  H     -1.483750    1.644333    1.147208
  H      1.936258   -0.512468   -1.259380
  H      2.518673    0.935640   -0.419461
  H      3.311562   -0.490307    1.483920
  H      2.735342   -1.934044    0.645623
  H      4.070742   -0.991387   -0.035573

 Total Charge           Charge          ....    0
 Multiplicity           Mult            ....    1
 Number of Electrons    NEL             ....   64
 Basis Dimension        Dim             ....  222

ORBITAL ENERGIES
----------------

  NO   OCC          E(Eh)            E(eV)
   0   2.0000     -18.996878      -516.9313
   1   2.0000     -18.926858      -515.0260
   2   2.0000     -10.150420      -276.2070
   3   2.0000     -10.091425      -274.6016
   4   2.0000     -10.040118      -273.2055
   5   2.0000     -10.033342      -273.0211
   6   2.0000     -10.032025      -272.9853
   7   2.0000     -10.018925      -272.6288
   8   2.0000      -1.071786       -29.1648
   9   2.0000      -0.973810       -26.4987
  10   2.0000      -0.773080       -21.0366
  11   2.0000      -0.743081       -20.2203
  12   2.0000      -0.677559       -18.4373
  13   2.0000      -0.617615       -16.8062
  14   2.0000      -0.565031       -15.3753
  15   2.0000      -0.529322       -14.4036
  16   2.0000      -0.469902       -12.7867
  17   2.0000      -0.464399       -12.6369
  18   2.0000      -0.435499       -11.8505
  19   2.0000      -0.425345       -11.5742
  20   2.0000      -0.407592       -11.0911
  21   2.0000      -0.379341       -10.3224
  22   2.0000      -0.378062       -10.2876
  23   2.0000      -0.366465        -9.9720
  24   2.0000      -0.361237        -9.8298
  25   2.0000      -0.334150        -9.0927
  26   2.0000      -0.323509        -8.8031
  27   2.0000      -0.308937        -8.4066
  28   2.0000      -0.307841        -8.3768
  29   2.0000      -0.306825        -8.3491
  30   2.0000      -0.271688        -7.3930
  31   2.0000      -0.234390        -6.3781
  32   0.0000      -0.015049        -0.4095
  33   0.0000       0.073355         1.9961
  34   0.0000       0.096512         2.6262
  35   0.0000       0.105218         2.8631
  36   0.0000       0.124915         3.3991

MULLIKEN ATOMIC CHARGES
-----------------------
   0 C :   -0.493863
   1 C :   -0.214962
   2 C :   -0.299397
   3 C :    0.327911
   4 O :   -0.419665
   5 O :   -0.157041
   6 C :   -0.153838
   7 C :   -0.441393
   8 H :    0.145925
   9 H :    0.148431
  10 H :    0.155936
  11 H :    0.143925
  12 H :    0.161660
  13 H :    0.164393
  14 H :    0.165781
  15 H :    0.159267
  16 H :    0.154976
  17 H :    0.152316
  18 H :    0.152501
  19 H :    0.147139
Sum of atomic charges:    0.0000000

LOEWDIN ATOMIC CHARGES
----------------------
   0 C :   -0.416667
   1 C :   -0.293573
   2 C :   -0.232729
   3 C :    0.351537
   4 O :   -0.431269
   5 O :   -0.598419
   6 C :    0.033102
   7 C :   -0.386533
   8 H :    0.150333
   9 H :    0.152782
  10 H :    0.155649
  11 H :    0.152679
  12 H :    0.167712
  13 H :    0.176828
  14 H :    0.181617
  15 H :    0.180267
  16 H :    0.178479
  17 H :    0.159380
  18 H :    0.159370
  19 H :    0.159455

  Mayer bond orders larger than 0.100000
B(  0-C ,  1-C ) :   0.9054 B(  0-C ,  8-H ) :   0.9820 B(  0-C ,  9-H ) :   0.9688
B(  0-C , 10-H ) :   0.9733 B(  1-C ,  2-C ) :   0.8888 B(  1-C , 11-H ) :   0.9658
B(  1-C , 12-H ) :   0.9667 B(  2-C ,  3-C ) :   0.9363 B(  2-C , 13-H ) :   1.0084
B(  2-C , 14-H ) :   0.9359 B(  3-C ,  4-O ) :   1.8137 B(  3-C ,  5-O ) :   1.0722
B(  5-O ,  6-C ) :   0.8063 B(  6-C ,  7-C ) :   0.9390 B(  6-C , 15-H ) :   0.9554
B(  6-C , 16-H ) :   0.9511 B(  7-C , 17-H ) :   0.9715 B(  7-C , 18-H ) :   0.9730
B(  7-C , 19-H ) :   0.9682

Dispersion correction           -0.005029441
FINAL SINGLE POINT ENERGY      -386.236720940492

DIPOLE MOMENT
-------------

Method             : SCF
Type of density    : Electron Density
Multiplicity       :   1
Irrep              :   0
Energy             :  -386.2433384610219491 Eh
Relativity type    :
Basis              : AO
                                X                 Y                 Z
Electronic contribution:      1.361426889       4.789115593      -1.210315643
Nuclear contribution   :     -1.107889550      -5.249176403       1.819461329
                        -----------------------------------------
Total Dipole Moment    :      0.253537339      -0.460060810       0.609145686
                        -----------------------------------------
Magnitude (a.u.)       :      0.804360366
Magnitude (Debye)      :      2.044521569

Rotational constants in cm-1:             0.128203             0.034644             0.031819
Rotational constants in MHz :          3843.420782          1038.609094           953.897039

                             ****ORCA TERMINATED NORMALLY****
TOTAL RUN TIME: 0 days 0 hours 0 minutes 29 seconds 958 msec
