                         Program Version 6.0.0  -   RELEASE  -
|  1> ! r2scan-3c def2/J RI DEFGRID2 scfconv6 printgap
|  2> %output
|  3>     printlevel normal
|  4> end
|  5> %cpcm
|  6>     smd true
|  7>     smdsolvent "water"
|  8> end
|  9> * xyz 0 1
| 10> C -2.4019673475 -1.3676471165 -0.2971517245
| 11> C -2.5425505269 0.1040630433 0.0723397263
| 12> C -1.3100147251 0.6164255668 0.8242246514
| 13> C -0.0993301031 0.6256528736 -0.0730021447
| 14> O -0.0437092134 1.1557825482 -1.1641953901
| 15> O 0.9219193 -0.0214708127 0.4701167572
| 16> C 2.150373983 -0.0852109528 -0.2740410614
| 17> C 3.1339186552 -0.9332378773 0.5085234099
| 18> H -2.2508281656 -1.9728431653 0.5934470068
| 19> H -3.2956705586 -1.7174121441 -0.8067835244
| 20> H -1.551359747 -1.5125998559 -0.9606922226
| 21> H -3.421588274 0.2419156985 0.7022346213
| 22> H -2.6704716652 0.6996153313 -0.833542213
| 23> H -1.0936971382 -0.0035141317 1.6933491269
| 24> H -1.4837502822 1.6443328266 1.147208497
| 25> H 1.9362577165 -0.5124678392 -1.2593802241
| 26> H 2.5186729599 0.9356402297 -0.4194607422
| 27> H 3.3115617935 -0.4903073105 1.4839203367
| 28> H 2.7353418489 -1.9340437088 0.6456225069
| 29> H 4.0707419325 -0.9913867992 -0.0355733595
| 30> *
| 31>
| 32>                          ****END OF INPUT****

CARTESIAN COORDINATES (ANGSTROEM)
---------------------------------
  C     -2.401967   -1.367647   -0.297152
  C     -2.542551    0.104063    0.072340
  C     -1.310015    0.616426    0.824225
  C     -0.099330    0.625653   -0.073002
  O     -0.043709    1.155783   -1.164195
  O      0.921919   -0.021471    0.470117
  C      2.150374   -0.085211   -0.274041
  C      3.133919   -0.933238    0.508523
  H     -2.250828   -1.972843    0.593447
  H     -3.295671   -1.717412   -0.806784
  H     -1.551360   -1.512600   -0.960692
  H     -3.421588    0.241916    0.702235
  H     -2.670472    0.699615   -0.833542
  H     -1.093697   -0.003514    1.693349
  H     -1.483750    1.644333    1.147208
  H      1.936258   -0.512468   -1.259380
  H      2.518673    0.935640   -0.419461
  H      3.311562   -0.490307    1.483920
  H      2.735342   -1.934044    0.645623
  H      4.070742   -0.991387   -0.035573

 Total Charge           Charge          ....    0
 Multiplicity           Mult            ....    1
 Number of Electrons    NEL             ....   64
 Basis Dimension        Dim             ....  222

ORBITAL ENERGIES
----------------

  NO   OCC          E(Eh)            E(eV)
   0   2.0000     -19.003436      -517.1098
   1   2.0000     -18.943535      -515.4798
   2   2.0000     -10.161869      -276.5185
   3   2.0000     -10.083924      -274.3975
   4   2.0000     -10.035226      -273.0724
   5   2.0000     -10.027907      -272.8732
   6   2.0000     -10.018902      -272.6282
   7   2.0000     -10.011492      -272.4266
   8   2.0000      -1.079852       -29.3843
   9   2.0000      -0.988430       -26.8966
  10   2.0000      -0.769421       -20.9370
  11   2.0000      -0.735829       -20.0229
  12   2.0000      -0.672160       -18.2904
  13   2.0000      -0.611485       -16.6394
  14   2.0000      -0.559071       -15.2131
  15   2.0000      -0.528785       -14.3890
  16   2.0000      -0.472365       -12.8537
  17   2.0000      -0.464612       -12.6427
  18   2.0000      -0.444879       -12.1058
  19   2.0000      -0.421315       -11.4646
  20   2.0000      -0.405601       -11.0370
  21   2.0000      -0.377021       -10.2593
  22   2.0000      -0.369074       -10.0430
  23   2.0000      -0.361355        -9.8330
  24   2.0000      -0.355815        -9.6822
  25   2.0000      -0.329145        -8.9565
  26   2.0000      -0.320891        -8.7319
  27   2.0000      -0.304493        -8.2857
  28   2.0000      -0.304387        -8.2828
  29   2.0000      -0.303258        -8.2521
  30   2.0000      -0.278382        -7.5752
  31   2.0000      -0.251895        -6.8544
  32   0.0000      -0.023723        -0.6455
  33   0.0000       0.076040         2.0691
  34   0.0000       0.104150         2.8341
  35   0.0000       0.115236         3.1357
  36   0.0000       0.132091         3.5944

MULLIKEN ATOMIC CHARGES
-----------------------
   0 C :   -0.529100
   1 C :   -0.223492
   2 C :   -0.315177
   3 C :    0.374507
   4 O :   -0.506550
   5 O :   -0.174692
   6 C :   -0.157793
   7 C :   -0.490872
   8 H :    0.162114
   9 H :    0.161411
  10 H :    0.162069
  11 H :    0.163386
  12 H :    0.154622
  13 H :    0.180216
  14 H :    0.194919
  15 H :    0.172434
  16 H :    0.172381
  17 H :    0.165010
  18 H :    0.165468
  19 H :    0.169137
Sum of atomic charges:    0.0000000

LOEWDIN ATOMIC CHARGES
----------------------
   0 C :   -0.423783
   1 C :   -0.293016
   2 C :   -0.229657
   3 C :    0.362081
   4 O :   -0.492787
   5 O :   -0.600108
   6 C :    0.035419
   7 C :   -0.389710
   8 H :    0.155775
   9 H :    0.156212
  10 H :    0.156103
  11 H :    0.160362
  12 H :    0.163427
  13 H :    0.184639
  14 H :    0.191997
  15 H :    0.185040
  16 H :    0.184290
  17 H :    0.162695
  18 H :    0.162687
  19 H :    0.168335

  Mayer bond orders larger than 0.100000
B(  0-C ,  1-C ) :   0.8991 B(  0-C ,  8-H ) :   0.9782 B(  0-C ,  9-H ) :   0.9657
B(  0-C , 10-H ) :   0.9708 B(  1-C ,  2-C ) :   0.8747 B(  1-C , 11-H ) :   0.9615
B(  1-C , 12-H ) :   0.9714 B(  2-C ,  3-C ) :   0.9387 B(  2-C , 13-H ) :   0.9977
B(  2-C , 14-H ) :   0.9285 B(  3-C ,  4-O ) :   1.7439 B(  3-C ,  5-O ) :   1.0984
B(  5-O ,  6-C ) :   0.7927 B(  6-C ,  7-C ) :   0.9407 B(  6-C , 15-H ) :   0.9478
B(  6-C , 16-H ) :   0.9432 B(  7-C , 17-H ) :   0.9694 B(  7-C , 18-H ) :   0.9712
B(  7-C , 19-H ) :   0.9616

Dispersion correction           -0.005029441
FINAL SINGLE POINT ENERGY      -386.242360533029

DIPOLE MOMENT
-------------

Method             : SCF
Type of density    : Electron Density
Multiplicity       :   1
Irrep              :   0
Energy             :  -386.2489780535597106 Eh
Relativity type    :
Basis              : AO
                                X                 Y                 Z
Electronic contribution:      1.424439759       4.622127378      -0.912710284
Nuclear contribution   :     -1.107889550      -5.249176403       1.819461329
                        -----------------------------------------
Total Dipole Moment    :      0.316550209      -0.627049025       0.906751044
                        -----------------------------------------
Magnitude (a.u.)       :      1.146992577
Magnitude (Debye)      :      2.915423438

Rotational constants in cm-1:             0.128203             0.034644             0.031819
Rotational constants in MHz :          3843.420782          1038.609094           953.897039

                             ****ORCA TERMINATED NORMALLY****
TOTAL RUN TIME: 0 days 0 hours 0 minutes 39 seconds 511 msec
