                         Program Version 6.0.0  -   RELEASE  -
|  1> ! r2scan-3c def2/J RI DEFGRID2 scfconv6 printgap
|  2> %output
|  3>     printlevel normal
|  4> end
|  5> * xyz 0 1
|  6> C -3.3772464817 -1.0240543511 0.0692229569
|  7> C -1.9516310427 -0.645373209 0.4488295456
|  8> C -1.3182833188 0.2677319109 -0.6113809036
|  9> C 0.0681125732 0.6516139286 -0.169844005
| 10> O 0.3184040336 1.5023579045 0.6591554818
| 11> O 0.9938090132 -0.0753700356 -0.7817076965
| 12> C 2.3721485302 0.1213351538 -0.4229186035
| 13> C 2.7635938933 -0.7676208926 0.7475535786
| 14> H -3.3905936045 -1.5473810947 -0.8832692571
| 15> H -3.8060052343 -1.6737988192 0.8271770635
| 16> H -3.9979839313 -0.1358453924 -0.0153737793
| 17> H -1.3457429693 -1.5478710893 0.5506598973
| 18> H -1.9468058784 -0.1254017149 1.409157097
| 19> H -1.91600644 1.1737043416 -0.7115004801
| 20> H -1.2579263147 -0.2519717548 -1.5663370928
| 21> H 2.9314996566 -0.1369245356 -1.3225778442
| 22> H 2.5192650994 1.1763566033 -0.1724798594
| 23> H 2.5658964421 -1.8091657949 0.5090034439
| 24> H 3.8208412299 -0.6419806826 0.9567998854
| 25> H 2.1931671657 -0.4914078869 1.6316935882
| 26> *
| 27>
| 28>                          ****END OF INPUT****

CARTESIAN COORDINATES (ANGSTROEM)
---------------------------------
  C     -3.377246   -1.024054    0.069223
  C     -1.951631   -0.645373    0.448830
  C     -1.318283    0.267732   -0.611381
  C      0.068113    0.651614   -0.169844
  O      0.318404    1.502358    0.659155
  O      0.993809   -0.075370   -0.781708
  C      2.372149    0.121335   -0.422919
  C      2.763594   -0.767621    0.747554
  H     -3.390594   -1.547381   -0.883269
  H     -3.806005   -1.673799    0.827177
  H     -3.997984   -0.135845   -0.015374
  H     -1.345743   -1.547871    0.550660
  H     -1.946806   -0.125402    1.409157
  H     -1.916006    1.173704   -0.711500
  H     -1.257926   -0.251972   -1.566337
  H      2.931500   -0.136925   -1.322578
  H      2.519265    1.176357   -0.172480
  H      2.565896   -1.809166    0.509003
  H      3.820841   -0.641981    0.956800
  H      2.193167   -0.491408    1.631694

 Total Charge           Charge          ....    0
 Multiplicity           Mult            ....    1
 Number of Electrons    NEL             ....   64
 Basis Dimension        Dim             ....  222

ORBITAL ENERGIES
----------------

  NO   OCC          E(Eh)            E(eV)
   0   2.0000     -18.995766      -516.9011
   1   2.0000     -18.925699      -514.9944
   2   2.0000     -10.150108      -276.1985
   3   2.0000     -10.090224      -274.5690
   4   2.0000     -10.039938      -273.2006
   5   2.0000     -10.038201      -273.1533
   6   2.0000     -10.028865      -272.8993
   7   2.0000     -10.023296      -272.7477
   8   2.0000      -1.070184       -29.1212
   9   2.0000      -0.973591       -26.4928
  10   2.0000      -0.774348       -21.0711
  11   2.0000      -0.739972       -20.1357
  12   2.0000      -0.680783       -18.5250
  13   2.0000      -0.621586       -16.9142
  14   2.0000      -0.568265       -15.4633
  15   2.0000      -0.521618       -14.1940
  16   2.0000      -0.472175       -12.8485
  17   2.0000      -0.454615       -12.3707
  18   2.0000      -0.442199       -12.0328
  19   2.0000      -0.421521       -11.4702
  20   2.0000      -0.410719       -11.1762
  21   2.0000      -0.391622       -10.6566
  22   2.0000      -0.369823       -10.0634
  23   2.0000      -0.363897        -9.9021
  24   2.0000      -0.358498        -9.7552
  25   2.0000      -0.343812        -9.3556
  26   2.0000      -0.325606        -8.8602
  27   2.0000      -0.311005        -8.4629
  28   2.0000      -0.309398        -8.4191
  29   2.0000      -0.303897        -8.2695
  30   2.0000      -0.269493        -7.3333
  31   2.0000      -0.233161        -6.3446
  32   0.0000      -0.013617        -0.3705
  33   0.0000       0.077648         2.1129
  34   0.0000       0.092774         2.5245
  35   0.0000       0.103013         2.8031
  36   0.0000       0.122149         3.3239

MULLIKEN ATOMIC CHARGES
-----------------------
   0 C :   -0.473472
   1 C :   -0.228079
   2 C :   -0.346613
   3 C :    0.421739
   4 O :   -0.434337
   5 O :   -0.180069
   6 C :   -0.140757
   7 C :   -0.468041
   8 H :    0.144345
   9 H :    0.150763
  10 H :    0.146414
  11 H :    0.141064
  12 H :    0.160597
  13 H :    0.161099
  14 H :    0.158850
  15 H :    0.147490
  16 H :    0.169644
  17 H :    0.151653
  18 H :    0.147437
  19 H :    0.170274
Sum of atomic charges:   -0.0000000

LOEWDIN ATOMIC CHARGES
----------------------
   0 C :   -0.419778
   1 C :   -0.287704
   2 C :   -0.229502
   3 C :    0.356958
   4 O :   -0.435920
   5 O :   -0.595613
   6 C :    0.027056
   7 C :   -0.390740
   8 H :    0.150591
   9 H :    0.153109
  10 H :    0.151439
  11 H :    0.156292
  12 H :    0.162784
  13 H :    0.177852
  14 H :    0.176132
  15 H :    0.177361
  16 H :    0.189252
  17 H :    0.156691
  18 H :    0.159204
  19 H :    0.164537

  Mayer bond orders larger than 0.100000
B(  0-C ,  1-C ) :   0.8948 B(  0-C ,  8-H ) :   0.9838 B(  0-C ,  9-H ) :   0.9722
B(  0-C , 10-H ) :   0.9854 B(  1-C ,  2-C ) :   0.9232 B(  1-C , 11-H ) :   0.9572
B(  1-C , 12-H ) :   0.9625 B(  2-C ,  3-C ) :   0.9600 B(  2-C , 13-H ) :   0.9734
B(  2-C , 14-H ) :   0.9840 B(  3-C ,  4-O ) :   1.8344 B(  3-C ,  5-O ) :   1.0385
B(  5-O ,  6-C ) :   0.8124 B(  6-C ,  7-C ) :   0.9361 B(  6-C , 15-H ) :   0.9620
B(  6-C , 16-H ) :   0.9658 B(  7-C , 17-H ) :   0.9742 B(  7-C , 18-H ) :   0.9657
B(  7-C , 19-H ) :   0.9717

Dispersion correction           -0.004997675
FINAL SINGLE POINT ENERGY      -386.235813293602

DIPOLE MOMENT
-------------

Method             : SCF
Type of density    : Electron Density
Multiplicity       :   1
Irrep              :   0
Energy             :  -386.2424858060485917 Eh
Relativity type    :
Basis              : AO
                                X                 Y                 Z
Electronic contribution:      3.500234854       4.931931996      -1.514723788
Nuclear contribution   :     -3.386457771      -5.618805703       1.136134570
                        -----------------------------------------
Total Dipole Moment    :      0.113777083      -0.686873707      -0.378589218
                        -----------------------------------------
Magnitude (a.u.)       :      0.792508997
Magnitude (Debye)      :      2.014397782

Rotational constants in cm-1:             0.138316             0.032111             0.030281
Rotational constants in MHz :          4146.606010           962.673985           907.814181

                             ****ORCA TERMINATED NORMALLY****
TOTAL RUN TIME: 0 days 0 hours 0 minutes 31 seconds 153 msec
