                         Program Version 6.0.0  -   RELEASE  -
|  1> ! r2scan-3c def2/J RI DEFGRID2 scfconv6 printgap
|  2> %output
|  3>     printlevel normal
|  4> end
|  5> %cpcm
|  6>     smd true
|  7>     smdsolvent "water"
|  8> end
|  9> * xyz 0 1
| 10> C -3.3772464817 -1.0240543511 0.0692229569
| 11> C -1.9516310427 -0.645373209 0.4488295456
| 12> C -1.3182833188 0.2677319109 -0.6113809036
| 13> C 0.0681125732 0.6516139286 -0.169844005
| 14> O 0.3184040336 1.5023579045 0.6591554818
| 15> O 0.9938090132 -0.0753700356 -0.7817076965
| 16> C 2.3721485302 0.1213351538 -0.4229186035
| 17> C 2.7635938933 -0.7676208926 0.7475535786
| 18> H -3.3905936045 -1.5473810947 -0.8832692571
| 19> H -3.8060052343 -1.6737988192 0.8271770635
| 20> H -3.9979839313 -0.1358453924 -0.0153737793
| 21> H -1.3457429693 -1.5478710893 0.5506598973
| 22> H -1.9468058784 -0.1254017149 1.409157097
| 23> H -1.91600644 1.1737043416 -0.7115004801
| 24> H -1.2579263147 -0.2519717548 -1.5663370928
| 25> H 2.9314996566 -0.1369245356 -1.3225778442
| 26> H 2.5192650994 1.1763566033 -0.1724798594
| 27> H 2.5658964421 -1.8091657949 0.5090034439
| 28> H 3.8208412299 -0.6419806826 0.9567998854
| 29> H 2.1931671657 -0.4914078869 1.6316935882
| 30> *
| 31>
| 32>                          ****END OF INPUT****

CARTESIAN COORDINATES (ANGSTROEM)
---------------------------------
  C     -3.377246   -1.024054    0.069223
  C     -1.951631   -0.645373    0.448830
  C     -1.318283    0.267732   -0.611381
  C      0.068113    0.651614   -0.169844
  O      0.318404    1.502358    0.659155
  O      0.993809   -0.075370   -0.781708
  C      2.372149    0.121335   -0.422919
  C      2.763594   -0.767621    0.747554
  H     -3.390594   -1.547381   -0.883269
  H     -3.806005   -1.673799    0.827177
  H     -3.997984   -0.135845   -0.015374
  H     -1.345743   -1.547871    0.550660
  H     -1.946806   -0.125402    1.409157
  H     -1.916006    1.173704   -0.711500
  H     -1.257926   -0.251972   -1.566337
  H      2.931500   -0.136925   -1.322578
  H      2.519265    1.176357   -0.172480
  H      2.565896   -1.809166    0.509003
  H      3.820841   -0.641981    0.956800
  H      2.193167   -0.491408    1.631694

 Total Charge           Charge          ....    0
 Multiplicity           Mult            ....    1
 Number of Electrons    NEL             ....   64
 Basis Dimension        Dim             ....  222

ORBITAL ENERGIES
----------------

  NO   OCC          E(Eh)            E(eV)
   0   2.0000     -19.002341      -517.0800
   1   2.0000     -18.942583      -515.4539
   2   2.0000     -10.161609      -276.5114
   3   2.0000     -10.083007      -274.3726
   4   2.0000     -10.034551      -273.0540
   5   2.0000     -10.030224      -272.9363
   6   2.0000     -10.018441      -272.6156
   7   2.0000     -10.011946      -272.4389
   8   2.0000      -1.078429       -29.3455
   9   2.0000      -0.988316       -26.8935
  10   2.0000      -0.769188       -20.9307
  11   2.0000      -0.733091       -19.9484
  12   2.0000      -0.674159       -18.3448
  13   2.0000      -0.616354       -16.7718
  14   2.0000      -0.560544       -15.2532
  15   2.0000      -0.520035       -14.1509
  16   2.0000      -0.472606       -12.8603
  17   2.0000      -0.460305       -12.5255
  18   2.0000      -0.441655       -12.0181
  19   2.0000      -0.423846       -11.5334
  20   2.0000      -0.407893       -11.0993
  21   2.0000      -0.384485       -10.4624
  22   2.0000      -0.362863        -9.8740
  23   2.0000      -0.359509        -9.7827
  24   2.0000      -0.354588        -9.6488
  25   2.0000      -0.339161        -9.2290
  26   2.0000      -0.319351        -8.6900
  27   2.0000      -0.305556        -8.3146
  28   2.0000      -0.303509        -8.2589
  29   2.0000      -0.299495        -8.1497
  30   2.0000      -0.277371        -7.5476
  31   2.0000      -0.249918        -6.8006
  32   0.0000      -0.022610        -0.6153
  33   0.0000       0.079411         2.1609
  34   0.0000       0.100282         2.7288
  35   0.0000       0.113063         3.0766
  36   0.0000       0.131512         3.5786

MULLIKEN ATOMIC CHARGES
-----------------------
   0 C :   -0.517417
   1 C :   -0.218786
   2 C :   -0.369498
   3 C :    0.459908
   4 O :   -0.517946
   5 O :   -0.199267
   6 C :   -0.145324
   7 C :   -0.492655
   8 H :    0.158878
   9 H :    0.162324
  10 H :    0.159231
  11 H :    0.155233
  12 H :    0.159228
  13 H :    0.180511
  14 H :    0.176333
  15 H :    0.173598
  16 H :    0.171615
  17 H :    0.165952
  18 H :    0.170672
  19 H :    0.167411
Sum of atomic charges:   -0.0000000

LOEWDIN ATOMIC CHARGES
----------------------
   0 C :   -0.424937
   1 C :   -0.285787
   2 C :   -0.227333
   3 C :    0.365818
   4 O :   -0.496549
   5 O :   -0.597815
   6 C :    0.031791
   7 C :   -0.393352
   8 H :    0.154919
   9 H :    0.156360
  10 H :    0.154809
  11 H :    0.160939
  12 H :    0.161588
  13 H :    0.184675
  14 H :    0.184263
  15 H :    0.188792
  16 H :    0.189940
  17 H :    0.161870
  18 H :    0.167785
  19 H :    0.162222

  Mayer bond orders larger than 0.100000
B(  0-C ,  1-C ) :   0.8876 B(  0-C ,  8-H ) :   0.9811 B(  0-C ,  9-H ) :   0.9689
B(  0-C , 10-H ) :   0.9827 B(  1-C ,  2-C ) :   0.9113 B(  1-C , 11-H ) :   0.9545
B(  1-C , 12-H ) :   0.9627 B(  2-C ,  3-C ) :   0.9590 B(  2-C , 13-H ) :   0.9692
B(  2-C , 14-H ) :   0.9745 B(  3-C ,  4-O ) :   1.7649 B(  3-C ,  5-O ) :   1.0627
B(  5-O ,  6-C ) :   0.7954 B(  6-C ,  7-C ) :   0.9355 B(  6-C , 15-H ) :   0.9526
B(  6-C , 16-H ) :   0.9618 B(  7-C , 17-H ) :   0.9702 B(  7-C , 18-H ) :   0.9606
B(  7-C , 19-H ) :   0.9690

Dispersion correction           -0.004997675
FINAL SINGLE POINT ENERGY      -386.240846692835

DIPOLE MOMENT
-------------

Method             : SCF
Type of density    : Electron Density
Multiplicity       :   1
Irrep              :   0
Energy             :  -386.2475192052817761 Eh
Relativity type    :
Basis              : AO
                                X                 Y                 Z
Electronic contribution:      3.538495986       4.655341659      -1.742948587
Nuclear contribution   :     -3.386457771      -5.618805703       1.136134570
                        -----------------------------------------
Total Dipole Moment    :      0.152038215      -0.963464044      -0.606814016
                        -----------------------------------------
Magnitude (a.u.)       :      1.148739237
Magnitude (Debye)      :      2.919863094

Rotational constants in cm-1:             0.138316             0.032111             0.030281
Rotational constants in MHz :          4146.606010           962.673985           907.814181

                             ****ORCA TERMINATED NORMALLY****
TOTAL RUN TIME: 0 days 0 hours 0 minutes 36 seconds 523 msec
