                         Program Version 6.0.0  -   RELEASE  -
|  1> ! pbe def2-sv(p) def2/J RI DEFGRID1 loosescf d4 GCP(DFT/SV(P)) printgap
|  2> %output
|  3>     printlevel normal
|  4> end
|  5> * xyz 0 1
|  6> C -3.5689273028 -1.0516008251 0.4303014607
|  7> C -2.6713460935 0.1172279461 0.0415827941
|  8> C -1.1931006242 -0.2604211963 0.1185232498
|  9> C -0.2992133708 0.9131744465 -0.2699424911
| 10> C 1.1784084444 0.6236739703 -0.2197969934
| 11> O 2.0317298154 1.4529199017 -0.4722883311
| 12> O 1.4491175606 -0.6249127447 0.1276151401
| 13> C 2.8139834355 -1.044972495 0.2146322766
| 14> H -4.6157349128 -0.7651825356 0.370441831
| 15> H -3.4044343665 -1.8957323385 -0.2351398296
| 16> H -3.3574384331 -1.3719954021 1.4476775734
| 17> H -2.9108803061 0.4358951977 -0.974872663
| 18> H -2.8646870262 0.9601849454 0.7080568021
| 19> H -0.9970051941 -1.102310968 -0.5471670274
| 20> H -0.9513522519 -0.5805693574 1.1331931299
| 21> H -0.4782788512 1.7691213801 0.3853322893
| 22> H -0.5221551378 1.2466364154 -1.2865982246
| 23> H 2.9818541953 -1.8017310162 -0.5498321121
| 24> H 2.9607529915 -1.468953832 1.2057350992
| 25> H 3.475778364 -0.1925693183 0.0571252953
| 26> *
| 27>
| 28>                          ****END OF INPUT****

CARTESIAN COORDINATES (ANGSTROEM)
---------------------------------
  C     -3.568927   -1.051601    0.430301
  C     -2.671346    0.117228    0.041583
  C     -1.193101   -0.260421    0.118523
  C     -0.299213    0.913174   -0.269942
  C      1.178408    0.623674   -0.219797
  O      2.031730    1.452920   -0.472288
  O      1.449118   -0.624913    0.127615
  C      2.813983   -1.044972    0.214632
  H     -4.615735   -0.765183    0.370442
  H     -3.404434   -1.895732   -0.235140
  H     -3.357438   -1.371995    1.447678
  H     -2.910880    0.435895   -0.974873
  H     -2.864687    0.960185    0.708057
  H     -0.997005   -1.102311   -0.547167
  H     -0.951352   -0.580569    1.133193
  H     -0.478279    1.769121    0.385332
  H     -0.522155    1.246636   -1.286598
  H      2.981854   -1.801731   -0.549832
  H      2.960753   -1.468954    1.205735
  H      3.475778   -0.192569    0.057125

 Total Charge           Charge          ....    0
 Multiplicity           Mult            ....    1
 Number of Electrons    NEL             ....   64
 Basis Dimension        Dim             ....  136

ORBITAL ENERGIES
----------------

  NO   OCC          E(Eh)            E(eV)
   0   2.0000     -18.800201      -511.5795
   1   2.0000     -18.728640      -509.6322
   2   2.0000     -10.002842      -272.1912
   3   2.0000      -9.939058      -270.4555
   4   2.0000      -9.896287      -269.2917
   5   2.0000      -9.886513      -269.0257
   6   2.0000      -9.886466      -269.0244
   7   2.0000      -9.875299      -268.7206
   8   2.0000      -1.004837       -27.3430
   9   2.0000      -0.905364       -24.6362
  10   2.0000      -0.731565       -19.9069
  11   2.0000      -0.685806       -18.6617
  12   2.0000      -0.644671       -17.5424
  13   2.0000      -0.580040       -15.7837
  14   2.0000      -0.520396       -14.1607
  15   2.0000      -0.507853       -13.8194
  16   2.0000      -0.446456       -12.1487
  17   2.0000      -0.444678       -12.1003
  18   2.0000      -0.422404       -11.4942
  19   2.0000      -0.406858       -11.0712
  20   2.0000      -0.386628       -10.5207
  21   2.0000      -0.378582       -10.3017
  22   2.0000      -0.368335       -10.0229
  23   2.0000      -0.342791        -9.3278
  24   2.0000      -0.334664        -9.1067
  25   2.0000      -0.309479        -8.4213
  26   2.0000      -0.307669        -8.3721
  27   2.0000      -0.296275        -8.0621
  28   2.0000      -0.290943        -7.9170
  29   2.0000      -0.289410        -7.8753
  30   2.0000      -0.252463        -6.8699
  31   2.0000      -0.214422        -5.8347
  32   0.0000      -0.016008        -0.4356
  33   0.0000       0.033512         0.9119
  34   0.0000       0.055990         1.5236
  35   0.0000       0.062005         1.6872
  36   0.0000       0.069823         1.9000

MULLIKEN ATOMIC CHARGES
-----------------------
   0 C :   -0.252642
   1 C :   -0.182605
   2 C :   -0.179498
   3 C :   -0.181054
   4 C :    0.130958
   5 O :   -0.209185
   6 O :   -0.238131
   7 C :   -0.132478
   8 H :    0.102052
   9 H :    0.096937
  10 H :    0.097040
  11 H :    0.082906
  12 H :    0.083165
  13 H :    0.086901
  14 H :    0.086338
  15 H :    0.114167
  16 H :    0.114769
  17 H :    0.122431
  18 H :    0.122506
  19 H :    0.135423
Sum of atomic charges:    0.0000000

LOEWDIN ATOMIC CHARGES
----------------------
   0 C :   -0.339264
   1 C :   -0.233847
   2 C :   -0.229853
   3 C :   -0.246042
   4 C :    0.034894
   5 O :   -0.178375
   6 O :   -0.065687
   7 C :   -0.209135
   8 H :    0.118857
   9 H :    0.116993
  10 H :    0.117004
  11 H :    0.113967
  12 H :    0.114024
  13 H :    0.117450
  14 H :    0.117241
  15 H :    0.142298
  16 H :    0.142690
  17 H :    0.120610
  18 H :    0.120811
  19 H :    0.125365

  Mayer bond orders larger than 0.100000
B(  0-C ,  1-C ) :   1.1606 B(  0-C ,  8-H ) :   0.9530 B(  0-C ,  9-H ) :   0.9542
B(  0-C , 10-H ) :   0.9542 B(  1-C ,  2-C ) :   1.1282 B(  1-C , 11-H ) :   0.9249
B(  1-C , 12-H ) :   0.9250 B(  2-C ,  3-C ) :   1.1279 B(  2-C , 13-H ) :   0.9213
B(  2-C , 14-H ) :   0.9229 B(  3-C ,  4-C ) :   1.0192 B(  3-C , 15-H ) :   0.8984
B(  3-C , 16-H ) :   0.8972 B(  4-C ,  5-O ) :   2.0656 B(  4-C ,  6-O ) :   1.2256
B(  5-O ,  6-O ) :   0.1000 B(  6-O ,  7-C ) :   0.9345 B(  7-C , 17-H ) :   0.9607
B(  7-C , 18-H ) :   0.9609 B(  7-C , 19-H ) :   0.9278

Dispersion correction           -0.014544799
FINAL SINGLE POINT ENERGY      -385.450558411591

DIPOLE MOMENT
-------------

Method             : SCF
Type of density    : Electron Density
Multiplicity       :   1
Irrep              :   0
Energy             :  -385.5261029179785055 Eh
Relativity type    :
Basis              : AO
                                X                 Y                 Z
Electronic contribution:      9.717254344       3.758409514      -1.402519377
Nuclear contribution   :     -9.971365266      -4.460156866       1.602861972
                        -----------------------------------------
Total Dipole Moment    :     -0.254110922      -0.701747352       0.200342595
                        -----------------------------------------
Magnitude (a.u.)       :      0.772760546
Magnitude (Debye)      :      1.964201211

Rotational constants in cm-1:             0.151700             0.029213             0.025068
Rotational constants in MHz :          4547.848836           875.777335           751.532038

                             ****ORCA TERMINATED NORMALLY****
TOTAL RUN TIME: 0 days 0 hours 0 minutes 9 seconds 804 msec
