                         Program Version 6.0.0  -   RELEASE  -
|  1> ! r2scan-3c def2/J RI DEFGRID2 scfconv6 printgap
|  2> %output
|  3>     printlevel normal
|  4> end
|  5> * xyz 0 1
|  6> C 3.1399342385 -0.7599432202 0.1260120453
|  7> C 1.9559492607 0.1302996115 0.486029034
|  8> C 1.0104475171 0.306187995 -0.70103807
|  9> C -0.1366502556 1.2807638207 -0.429175283
| 10> C -1.153467523 0.7735602231 0.5783808243
| 11> Cl -2.0078568881 -0.687743228 -0.0366458699
| 12> H 2.7950276485 -1.7442426036 -0.1832782648
| 13> H 3.8018357414 -0.8808358599 0.9800102281
| 14> H 3.7098777397 -0.325389545 -0.6922186729
| 15> H 1.421151375 -0.3168320826 1.3254884592
| 16> H 2.3221231874 1.1088977774 0.8040632098
| 17> H 0.5977046463 -0.6645237252 -0.9834495953
| 18> H 1.5839823858 0.6800222743 -1.551643395
| 19> H -0.6495113961 1.4983849275 -1.3676165987
| 20> H 0.2677023023 2.2170409789 -0.0388498075
| 21> H -0.6884491301 0.4779981159 1.5159332798
| 22> H -1.9289680069 1.5144166894 0.7630872273
| 23> *
| 24>
| 25>                          ****END OF INPUT****

CARTESIAN COORDINATES (ANGSTROEM)
---------------------------------
  C      3.139934   -0.759943    0.126012
  C      1.955949    0.130300    0.486029
  C      1.010448    0.306188   -0.701038
  C     -0.136650    1.280764   -0.429175
  C     -1.153468    0.773560    0.578381
  Cl    -2.007857   -0.687743   -0.036646
  H      2.795028   -1.744243   -0.183278
  H      3.801836   -0.880836    0.980010
  H      3.709878   -0.325390   -0.692219
  H      1.421151   -0.316832    1.325488
  H      2.322123    1.108898    0.804063
  H      0.597705   -0.664524   -0.983450
  H      1.583982    0.680022   -1.551643
  H     -0.649511    1.498385   -1.367617
  H      0.267702    2.217041   -0.038850
  H     -0.688449    0.477998    1.515933
  H     -1.928968    1.514417    0.763087

 Total Charge           Charge          ....    0
 Multiplicity           Mult            ....    1
 Number of Electrons    NEL             ....   58
 Basis Dimension        Dim             ....  177

ORBITAL ENERGIES
----------------

  NO   OCC          E(Eh)            E(eV)
   0   2.0000    -101.197444     -2753.7224
   1   2.0000     -10.091073      -274.5921
   2   2.0000     -10.041145      -273.2334
   3   2.0000     -10.028974      -272.9023
   4   2.0000     -10.027771      -272.8695
   5   2.0000     -10.018551      -272.6186
   6   2.0000      -9.353472      -254.5209
   7   2.0000      -7.099592      -193.1897
   8   2.0000      -7.089581      -192.9173
   9   2.0000      -7.089538      -192.9161
  10   2.0000      -0.822150       -22.3718
  11   2.0000      -0.765426       -20.8283
  12   2.0000      -0.710932       -19.3454
  13   2.0000      -0.641061       -17.4442
  14   2.0000      -0.581577       -15.8255
  15   2.0000      -0.537815       -14.6347
  16   2.0000      -0.453206       -12.3324
  17   2.0000      -0.442621       -12.0443
  18   2.0000      -0.416258       -11.3270
  19   2.0000      -0.397831       -10.8255
  20   2.0000      -0.375881       -10.2282
  21   2.0000      -0.368993       -10.0408
  22   2.0000      -0.342255        -9.3132
  23   2.0000      -0.329950        -8.9784
  24   2.0000      -0.307948        -8.3797
  25   2.0000      -0.300499        -8.1770
  26   2.0000      -0.294452        -8.0124
  27   2.0000      -0.263928        -7.1818
  28   2.0000      -0.261776        -7.1233
  29   0.0000       0.009152         0.2490
  30   0.0000       0.081680         2.2226
  31   0.0000       0.104759         2.8506
  32   0.0000       0.114252         3.1090
  33   0.0000       0.122306         3.3281

MULLIKEN ATOMIC CHARGES
-----------------------
   0 C :   -0.468082
   1 C :   -0.249689
   2 C :   -0.280894
   3 C :   -0.241536
   4 C :   -0.183307
   5 Cl:   -0.209500
   6 H :    0.144832
   7 H :    0.146359
   8 H :    0.142130
   9 H :    0.135900
  10 H :    0.136408
  11 H :    0.160403
  12 H :    0.143233
  13 H :    0.160152
  14 H :    0.140503
  15 H :    0.157964
  16 H :    0.165124
Sum of atomic charges:   -0.0000000

LOEWDIN ATOMIC CHARGES
----------------------
   0 C :   -0.422825
   1 C :   -0.317369
   2 C :   -0.318742
   3 C :   -0.326845
   4 C :   -0.318248
   5 Cl:   -0.008240
   6 H :    0.151861
   7 H :    0.150336
   8 H :    0.149699
   9 H :    0.150007
  10 H :    0.149985
  11 H :    0.163339
  12 H :    0.156603
  13 H :    0.163491
  14 H :    0.162520
  15 H :    0.156816
  16 H :    0.157610

  Mayer bond orders larger than 0.100000
B(  0-C ,  1-C ) :   0.9120 B(  0-C ,  6-H ) :   0.9801 B(  0-C ,  7-H ) :   0.9742
B(  0-C ,  8-H ) :   0.9853 B(  1-C ,  2-C ) :   0.9182 B(  1-C ,  9-H ) :   0.9645
B(  1-C , 10-H ) :   0.9750 B(  2-C ,  3-C ) :   0.8966 B(  2-C , 11-H ) :   0.9669
B(  2-C , 12-H ) :   0.9717 B(  3-C ,  4-C ) :   0.9205 B(  3-C , 13-H ) :   0.9674
B(  3-C , 14-H ) :   0.9657 B(  4-C ,  5-Cl) :   0.9757 B(  4-C , 15-H ) :   0.9717
B(  4-C , 16-H ) :   0.9548

Dispersion correction           -0.004387230
FINAL SINGLE POINT ENERGY      -657.268291616423

DIPOLE MOMENT
-------------

Method             : SCF
Type of density    : Electron Density
Multiplicity       :   1
Irrep              :   0
Energy             :  -657.2742140596322997 Eh
Relativity type    :
Basis              : AO
                                X                 Y                 Z
Electronic contribution:    -14.605582248      -3.614605337      -0.400183353
Nuclear contribution   :     15.109246397       4.267603827       0.585373826
                        -----------------------------------------
Total Dipole Moment    :      0.503664150       0.652998490       0.185190473
                        -----------------------------------------
Magnitude (a.u.)       :      0.845210101
Magnitude (Debye)      :      2.148353345

Rotational constants in cm-1:             0.177200             0.040703             0.037014
Rotational constants in MHz :          5312.313144          1220.235295          1109.645536

                             ****ORCA TERMINATED NORMALLY****
TOTAL RUN TIME: 0 days 0 hours 0 minutes 18 seconds 948 msec
