                         Program Version 6.0.0  -   RELEASE  -
|  1> ! r2scan-3c def2/J RI DEFGRID2 scfconv6 printgap
|  2> %output
|  3>     printlevel normal
|  4> end
|  5> %cpcm
|  6>     smd true
|  7>     smdsolvent "water"
|  8> end
|  9> * xyz 0 1
| 10> C 3.1399342385 -0.7599432202 0.1260120453
| 11> C 1.9559492607 0.1302996115 0.486029034
| 12> C 1.0104475171 0.306187995 -0.70103807
| 13> C -0.1366502556 1.2807638207 -0.429175283
| 14> C -1.153467523 0.7735602231 0.5783808243
| 15> Cl -2.0078568881 -0.687743228 -0.0366458699
| 16> H 2.7950276485 -1.7442426036 -0.1832782648
| 17> H 3.8018357414 -0.8808358599 0.9800102281
| 18> H 3.7098777397 -0.325389545 -0.6922186729
| 19> H 1.421151375 -0.3168320826 1.3254884592
| 20> H 2.3221231874 1.1088977774 0.8040632098
| 21> H 0.5977046463 -0.6645237252 -0.9834495953
| 22> H 1.5839823858 0.6800222743 -1.551643395
| 23> H -0.6495113961 1.4983849275 -1.3676165987
| 24> H 0.2677023023 2.2170409789 -0.0388498075
| 25> H -0.6884491301 0.4779981159 1.5159332798
| 26> H -1.9289680069 1.5144166894 0.7630872273
| 27> *
| 28>
| 29>                          ****END OF INPUT****

CARTESIAN COORDINATES (ANGSTROEM)
---------------------------------
  C      3.139934   -0.759943    0.126012
  C      1.955949    0.130300    0.486029
  C      1.010448    0.306188   -0.701038
  C     -0.136650    1.280764   -0.429175
  C     -1.153468    0.773560    0.578381
  Cl    -2.007857   -0.687743   -0.036646
  H      2.795028   -1.744243   -0.183278
  H      3.801836   -0.880836    0.980010
  H      3.709878   -0.325390   -0.692219
  H      1.421151   -0.316832    1.325488
  H      2.322123    1.108898    0.804063
  H      0.597705   -0.664524   -0.983450
  H      1.583982    0.680022   -1.551643
  H     -0.649511    1.498385   -1.367617
  H      0.267702    2.217041   -0.038850
  H     -0.688449    0.477998    1.515933
  H     -1.928968    1.514417    0.763087

 Total Charge           Charge          ....    0
 Multiplicity           Mult            ....    1
 Number of Electrons    NEL             ....   58
 Basis Dimension        Dim             ....  177

ORBITAL ENERGIES
----------------

  NO   OCC          E(Eh)            E(eV)
   0   2.0000    -101.197695     -2753.7293
   1   2.0000     -10.079761      -274.2843
   2   2.0000     -10.027338      -272.8577
   3   2.0000     -10.016251      -272.5560
   4   2.0000     -10.015917      -272.5470
   5   2.0000     -10.007298      -272.3124
   6   2.0000      -9.354107      -254.5382
   7   2.0000      -7.099829      -193.1962
   8   2.0000      -7.090389      -192.9393
   9   2.0000      -7.090331      -192.9377
  10   2.0000      -0.817331       -22.2407
  11   2.0000      -0.755220       -20.5506
  12   2.0000      -0.700720       -19.0676
  13   2.0000      -0.630720       -17.1628
  14   2.0000      -0.569732       -15.5032
  15   2.0000      -0.525970       -14.3124
  16   2.0000      -0.440948       -11.9988
  17   2.0000      -0.430570       -11.7164
  18   2.0000      -0.406151       -11.0519
  19   2.0000      -0.386372       -10.5137
  20   2.0000      -0.367475        -9.9995
  21   2.0000      -0.358379        -9.7520
  22   2.0000      -0.330784        -9.0011
  23   2.0000      -0.319298        -8.6885
  24   2.0000      -0.296979        -8.0812
  25   2.0000      -0.288589        -7.8529
  26   2.0000      -0.283024        -7.7015
  27   2.0000      -0.263642        -7.1741
  28   2.0000      -0.260695        -7.0939
  29   0.0000       0.014149         0.3850
  30   0.0000       0.095090         2.5875
  31   0.0000       0.116235         3.1629
  32   0.0000       0.128411         3.4942
  33   0.0000       0.133720         3.6387

MULLIKEN ATOMIC CHARGES
-----------------------
   0 C :   -0.509330
   1 C :   -0.258247
   2 C :   -0.295679
   3 C :   -0.257540
   4 C :   -0.195219
   5 Cl:   -0.257522
   6 H :    0.152093
   7 H :    0.155606
   8 H :    0.153727
   9 H :    0.149991
  10 H :    0.148119
  11 H :    0.152632
  12 H :    0.155570
  13 H :    0.169461
  14 H :    0.162784
  15 H :    0.183494
  16 H :    0.190060
Sum of atomic charges:   -0.0000000

LOEWDIN ATOMIC CHARGES
----------------------
   0 C :   -0.432861
   1 C :   -0.318304
   2 C :   -0.321766
   3 C :   -0.325946
   4 C :   -0.312583
   5 Cl:   -0.040352
   6 H :    0.152329
   7 H :    0.152098
   8 H :    0.152018
   9 H :    0.153700
  10 H :    0.153975
  11 H :    0.158592
  12 H :    0.159749
  13 H :    0.164634
  14 H :    0.171896
  15 H :    0.166120
  16 H :    0.166701

  Mayer bond orders larger than 0.100000
B(  0-C ,  1-C ) :   0.8959 B(  0-C ,  6-H ) :   0.9793 B(  0-C ,  7-H ) :   0.9720
B(  0-C ,  8-H ) :   0.9828 B(  1-C ,  2-C ) :   0.9144 B(  1-C ,  9-H ) :   0.9652
B(  1-C , 10-H ) :   0.9736 B(  2-C ,  3-C ) :   0.8870 B(  2-C , 11-H ) :   0.9731
B(  2-C , 12-H ) :   0.9713 B(  3-C ,  4-C ) :   0.9151 B(  3-C , 13-H ) :   0.9714
B(  3-C , 14-H ) :   0.9596 B(  4-C ,  5-Cl) :   0.9377 B(  4-C , 15-H ) :   0.9648
B(  4-C , 16-H ) :   0.9488

Dispersion correction           -0.004387230
FINAL SINGLE POINT ENERGY      -657.269447806913

DIPOLE MOMENT
-------------

Method             : SCF
Type of density    : Electron Density
Multiplicity       :   1
Irrep              :   0
Energy             :  -657.2753702501230464 Eh
Relativity type    :
Basis              : AO
                                X                 Y                 Z
Electronic contribution:    -14.497441955      -3.342149628      -0.283637124
Nuclear contribution   :     15.109246397       4.267603827       0.585373826
                        -----------------------------------------
Total Dipole Moment    :      0.611804442       0.925454199       0.301736702
                        -----------------------------------------
Magnitude (a.u.)       :      1.149702217
Magnitude (Debye)      :      2.922310795

Rotational constants in cm-1:             0.177200             0.040703             0.037014
Rotational constants in MHz :          5312.313144          1220.235295          1109.645536

                             ****ORCA TERMINATED NORMALLY****
TOTAL RUN TIME: 0 days 0 hours 0 minutes 25 seconds 224 msec
