                         Program Version 6.0.0  -   RELEASE  -
|  1> ! r2scan-3c def2/J RI DEFGRID2 scfconv6 printgap
|  2> %output
|  3>     printlevel normal
|  4> end
|  5> * xyz 0 1
|  6> C 2.1442004405 -0.8640365989 0.6001580712
|  7> C 1.6938976156 -0.129135333 -0.657214956
|  8> C 1.179777138 1.2832647431 -0.3750511711
|  9> C -0.0820230679 1.3640132074 0.4875838597
| 10> C -1.3340385127 0.8039313018 -0.1701791681
| 11> Cl -1.4880562475 -0.9804223044 0.0326385147
| 12> H 2.8640481824 -0.2665475835 1.1553718707
| 13> H 2.6125159793 -1.8092552147 0.335580332
| 14> H 1.2987850129 -1.0810888178 1.2480471042
| 15> H 2.5418273852 -0.0493167828 -1.3417647217
| 16> H 0.9223120679 -0.7131028822 -1.160073389
| 17> H 0.98155717 1.7790600956 -1.3279805308
| 18> H 1.9694024723 1.8434311759 0.130567215
| 19> H -0.2786722267 2.4186625735 0.6923648923
| 20> H 0.0821389521 0.8694786558 1.4446982614
| 21> H -2.2329801607 1.2150727321 0.2851823103
| 22> H -1.3406800172 0.9879960678 -1.2431533329
| 23> *
| 24>
| 25>                          ****END OF INPUT****

CARTESIAN COORDINATES (ANGSTROEM)
---------------------------------
  C      2.144200   -0.864037    0.600158
  C      1.693898   -0.129135   -0.657215
  C      1.179777    1.283265   -0.375051
  C     -0.082023    1.364013    0.487584
  C     -1.334039    0.803931   -0.170179
  Cl    -1.488056   -0.980422    0.032639
  H      2.864048   -0.266548    1.155372
  H      2.612516   -1.809255    0.335580
  H      1.298785   -1.081089    1.248047
  H      2.541827   -0.049317   -1.341765
  H      0.922312   -0.713103   -1.160073
  H      0.981557    1.779060   -1.327981
  H      1.969402    1.843431    0.130567
  H     -0.278672    2.418663    0.692365
  H      0.082139    0.869479    1.444698
  H     -2.232980    1.215073    0.285182
  H     -1.340680    0.987996   -1.243153

 Total Charge           Charge          ....    0
 Multiplicity           Mult            ....    1
 Number of Electrons    NEL             ....   58
 Basis Dimension        Dim             ....  177

ORBITAL ENERGIES
----------------

  NO   OCC          E(Eh)            E(eV)
   0   2.0000    -101.197843     -2753.7333
   1   2.0000     -10.092512      -274.6312
   2   2.0000     -10.041257      -273.2365
   3   2.0000     -10.030454      -272.9425
   4   2.0000     -10.021610      -272.7019
   5   2.0000     -10.011652      -272.4309
   6   2.0000      -9.353981      -254.5348
   7   2.0000      -7.100137      -193.2046
   8   2.0000      -7.090099      -192.9314
   9   2.0000      -7.089981      -192.9282
  10   2.0000      -0.822016       -22.3682
  11   2.0000      -0.762864       -20.7586
  12   2.0000      -0.708635       -19.2829
  13   2.0000      -0.639902       -17.4126
  14   2.0000      -0.585074       -15.9207
  15   2.0000      -0.529823       -14.4172
  16   2.0000      -0.453768       -12.3477
  17   2.0000      -0.441723       -12.0199
  18   2.0000      -0.405890       -11.0448
  19   2.0000      -0.399284       -10.8651
  20   2.0000      -0.385474       -10.4893
  21   2.0000      -0.349881        -9.5207
  22   2.0000      -0.342944        -9.3320
  23   2.0000      -0.340480        -9.2649
  24   2.0000      -0.303840        -8.2679
  25   2.0000      -0.295583        -8.0432
  26   2.0000      -0.294306        -8.0085
  27   2.0000      -0.263134        -7.1602
  28   2.0000      -0.256737        -6.9862
  29   0.0000       0.005918         0.1610
  30   0.0000       0.083236         2.2650
  31   0.0000       0.108187         2.9439
  32   0.0000       0.110975         3.0198
  33   0.0000       0.120367         3.2753

MULLIKEN ATOMIC CHARGES
-----------------------
   0 C :   -0.490540
   1 C :   -0.218535
   2 C :   -0.305927
   3 C :   -0.274207
   4 C :   -0.174287
   5 Cl:   -0.202221
   6 H :    0.140099
   7 H :    0.146957
   8 H :    0.160110
   9 H :    0.138883
  10 H :    0.157166
  11 H :    0.143108
  12 H :    0.144118
  13 H :    0.147047
  14 H :    0.167379
  15 H :    0.162211
  16 H :    0.158639
Sum of atomic charges:    0.0000000

LOEWDIN ATOMIC CHARGES
----------------------
   0 C :   -0.431311
   1 C :   -0.324802
   2 C :   -0.312245
   3 C :   -0.327231
   4 C :   -0.316608
   5 Cl:   -0.004704
   6 H :    0.148022
   7 H :    0.152913
   8 H :    0.152091
   9 H :    0.150776
  10 H :    0.157170
  11 H :    0.154135
  12 H :    0.156279
  13 H :    0.162839
  14 H :    0.165472
  15 H :    0.158243
  16 H :    0.158959

  Mayer bond orders larger than 0.100000
B(  0-C ,  1-C ) :   0.8901 B(  0-C ,  6-H ) :   0.9813 B(  0-C ,  7-H ) :   0.9691
B(  0-C ,  8-H ) :   0.9779 B(  1-C ,  2-C ) :   0.9135 B(  1-C ,  9-H ) :   0.9617
B(  1-C , 10-H ) :   0.9698 B(  2-C ,  3-C ) :   0.9037 B(  2-C , 11-H ) :   0.9768
B(  2-C , 12-H ) :   0.9809 B(  3-C ,  4-C ) :   0.8968 B(  3-C , 13-H ) :   0.9490
B(  3-C , 14-H ) :   0.9780 B(  4-C ,  5-Cl) :   0.9721 B(  4-C , 15-H ) :   0.9536
B(  4-C , 16-H ) :   0.9713

Dispersion correction           -0.004681655
FINAL SINGLE POINT ENERGY      -657.265005632583

DIPOLE MOMENT
-------------

Method             : SCF
Type of density    : Electron Density
Multiplicity       :   1
Irrep              :   0
Energy             :  -657.2708832373492669 Eh
Relativity type    :
Basis              : AO
                                X                 Y                 Z
Electronic contribution:    -10.662896932      -5.391717317      -0.228949399
Nuclear contribution   :     10.835061744       6.189140584       0.161501037
                        -----------------------------------------
Total Dipole Moment    :      0.172164811       0.797423267      -0.067448362
                        -----------------------------------------
Magnitude (a.u.)       :      0.818580400
Magnitude (Debye)      :      2.080666023

Rotational constants in cm-1:             0.123673             0.061804             0.047230
Rotational constants in MHz :          3707.612872          1852.841890          1415.915835

                             ****ORCA TERMINATED NORMALLY****
TOTAL RUN TIME: 0 days 0 hours 0 minutes 19 seconds 925 msec
