                         Program Version 6.0.0  -   RELEASE  -
|  1> ! r2scan-3c def2/J RI DEFGRID2 scfconv6 printgap
|  2> %output
|  3>     printlevel normal
|  4> end
|  5> %cpcm
|  6>     smd true
|  7>     smdsolvent "water"
|  8> end
|  9> * xyz 0 1
| 10> C 2.1442004405 -0.8640365989 0.6001580712
| 11> C 1.6938976156 -0.129135333 -0.657214956
| 12> C 1.179777138 1.2832647431 -0.3750511711
| 13> C -0.0820230679 1.3640132074 0.4875838597
| 14> C -1.3340385127 0.8039313018 -0.1701791681
| 15> Cl -1.4880562475 -0.9804223044 0.0326385147
| 16> H 2.8640481824 -0.2665475835 1.1553718707
| 17> H 2.6125159793 -1.8092552147 0.335580332
| 18> H 1.2987850129 -1.0810888178 1.2480471042
| 19> H 2.5418273852 -0.0493167828 -1.3417647217
| 20> H 0.9223120679 -0.7131028822 -1.160073389
| 21> H 0.98155717 1.7790600956 -1.3279805308
| 22> H 1.9694024723 1.8434311759 0.130567215
| 23> H -0.2786722267 2.4186625735 0.6923648923
| 24> H 0.0821389521 0.8694786558 1.4446982614
| 25> H -2.2329801607 1.2150727321 0.2851823103
| 26> H -1.3406800172 0.9879960678 -1.2431533329
| 27> *
| 28>
| 29>                          ****END OF INPUT****

CARTESIAN COORDINATES (ANGSTROEM)
---------------------------------
  C      2.144200   -0.864037    0.600158
  C      1.693898   -0.129135   -0.657215
  C      1.179777    1.283265   -0.375051
  C     -0.082023    1.364013    0.487584
  C     -1.334039    0.803931   -0.170179
  Cl    -1.488056   -0.980422    0.032639
  H      2.864048   -0.266548    1.155372
  H      2.612516   -1.809255    0.335580
  H      1.298785   -1.081089    1.248047
  H      2.541827   -0.049317   -1.341765
  H      0.922312   -0.713103   -1.160073
  H      0.981557    1.779060   -1.327981
  H      1.969402    1.843431    0.130567
  H     -0.278672    2.418663    0.692365
  H      0.082139    0.869479    1.444698
  H     -2.232980    1.215073    0.285182
  H     -1.340680    0.987996   -1.243153

 Total Charge           Charge          ....    0
 Multiplicity           Mult            ....    1
 Number of Electrons    NEL             ....   58
 Basis Dimension        Dim             ....  177

ORBITAL ENERGIES
----------------

  NO   OCC          E(Eh)            E(eV)
   0   2.0000    -101.196374     -2753.6933
   1   2.0000     -10.080242      -274.2973
   2   2.0000     -10.026750      -272.8417
   3   2.0000     -10.017166      -272.5810
   4   2.0000     -10.013900      -272.4921
   5   2.0000     -10.005335      -272.2590
   6   2.0000      -9.352906      -254.5055
   7   2.0000      -7.098681      -193.1649
   8   2.0000      -7.089190      -192.9067
   9   2.0000      -7.089050      -192.9029
  10   2.0000      -0.815959       -22.2034
  11   2.0000      -0.753898       -20.5146
  12   2.0000      -0.699721       -19.0404
  13   2.0000      -0.630390       -17.1538
  14   2.0000      -0.574733       -15.6393
  15   2.0000      -0.519245       -14.1294
  16   2.0000      -0.441675       -12.0186
  17   2.0000      -0.430870       -11.7246
  18   2.0000      -0.394402       -10.7322
  19   2.0000      -0.390361       -10.6223
  20   2.0000      -0.378367       -10.2959
  21   2.0000      -0.340299        -9.2600
  22   2.0000      -0.333471        -9.0742
  23   2.0000      -0.330874        -9.0035
  24   2.0000      -0.296703        -8.0737
  25   2.0000      -0.286486        -7.7957
  26   2.0000      -0.284340        -7.7373
  27   2.0000      -0.260834        -7.0977
  28   2.0000      -0.253315        -6.8930
  29   0.0000       0.012234         0.3329
  30   0.0000       0.096314         2.6208
  31   0.0000       0.117151         3.1878
  32   0.0000       0.123149         3.3511
  33   0.0000       0.129156         3.5145

MULLIKEN ATOMIC CHARGES
-----------------------
   0 C :   -0.530628
   1 C :   -0.228023
   2 C :   -0.311555
   3 C :   -0.281756
   4 C :   -0.190053
   5 Cl:   -0.249367
   6 H :    0.153736
   7 H :    0.155891
   8 H :    0.161724
   9 H :    0.147689
  10 H :    0.151501
  11 H :    0.155752
  12 H :    0.153768
  13 H :    0.167670
  14 H :    0.172342
  15 H :    0.187160
  16 H :    0.184148
Sum of atomic charges:    0.0000000

LOEWDIN ATOMIC CHARGES
----------------------
   0 C :   -0.440791
   1 C :   -0.327728
   2 C :   -0.313103
   3 C :   -0.325344
   4 C :   -0.310865
   5 Cl:   -0.035814
   6 H :    0.152449
   7 H :    0.153287
   8 H :    0.151115
   9 H :    0.152822
  10 H :    0.153785
  11 H :    0.158615
  12 H :    0.158976
  13 H :    0.171396
  14 H :    0.165921
  15 H :    0.167087
  16 H :    0.168190

  Mayer bond orders larger than 0.100000
B(  0-C ,  1-C ) :   0.8822 B(  0-C ,  6-H ) :   0.9774 B(  0-C ,  7-H ) :   0.9686
B(  0-C ,  8-H ) :   0.9785 B(  1-C ,  2-C ) :   0.9041 B(  1-C ,  9-H ) :   0.9619
B(  1-C , 10-H ) :   0.9745 B(  2-C ,  3-C ) :   0.8942 B(  2-C , 11-H ) :   0.9744
B(  2-C , 12-H ) :   0.9806 B(  3-C ,  4-C ) :   0.8926 B(  3-C , 13-H ) :   0.9446
B(  3-C , 14-H ) :   0.9801 B(  4-C ,  5-Cl) :   0.9363 B(  4-C , 15-H ) :   0.9477
B(  4-C , 16-H ) :   0.9650

Dispersion correction           -0.004681655
FINAL SINGLE POINT ENERGY      -657.265954344499

DIPOLE MOMENT
-------------

Method             : SCF
Type of density    : Electron Density
Multiplicity       :   1
Irrep              :   0
Energy             :  -657.2718319492652199 Eh
Relativity type    :
Basis              : AO
                                X                 Y                 Z
Electronic contribution:    -10.645560334      -5.060365624      -0.259827480
Nuclear contribution   :     10.835061744       6.189140584       0.161501037
                        -----------------------------------------
Total Dipole Moment    :      0.189501409       1.128774960      -0.098326443
                        -----------------------------------------
Magnitude (a.u.)       :      1.148787092
Magnitude (Debye)      :      2.919984733

Rotational constants in cm-1:             0.123673             0.061804             0.047230
Rotational constants in MHz :          3707.612872          1852.841890          1415.915835

                             ****ORCA TERMINATED NORMALLY****
TOTAL RUN TIME: 0 days 0 hours 0 minutes 24 seconds 859 msec
