                         Program Version 6.0.0  -   RELEASE  -
|  1> ! r2scan-3c def2/J RI DEFGRID2 scfconv6 printgap
|  2> %output
|  3>     printlevel normal
|  4> end
|  5> * xyz 0 1
|  6> C -3.6817648413 -0.675534611 0.2969874713
|  7> C -2.4757831696 0.1468042896 -0.1382696244
|  8> C -1.1669245351 -0.5291115055 0.2604510923
|  9> C 0.0404499291 0.2513919928 -0.1860969909
| 10> O 0.0186413488 1.2645014904 -0.8536293061
| 11> O 1.1657836417 -0.3102869459 0.2404623378
| 12> C 2.406552253 0.3222313534 -0.1181876748
| 13> C 3.5389907028 -0.4767176758 0.496790163
| 14> H -3.6862309184 -0.8031909131 1.376536269
| 15> H -4.6021383514 -0.1774629914 0.0053661913
| 16> H -3.6602328254 -1.6584314243 -0.1669074647
| 17> H -2.5169064419 1.1391757676 0.3143862859
| 18> H -2.4878475948 0.2863912878 -1.2207273947
| 19> H -1.0977282087 -1.5245414982 -0.1834803962
| 20> H -1.1045441147 -0.6532327527 1.3430032825
| 21> H 2.4756962792 0.3523464584 -1.2105861554
| 22> H 2.3879276245 1.3533834825 0.2497910465
| 23> H 3.4358260324 -0.4966181292 1.5775700805
| 24> H 3.51889812 -1.4965396561 0.1244058094
| 25> H 4.4861939995 -0.0171383557 0.2348154129
| 26> *
| 27>
| 28>                          ****END OF INPUT****

CARTESIAN COORDINATES (ANGSTROEM)
---------------------------------
  C     -3.681765   -0.675535    0.296987
  C     -2.475783    0.146804   -0.138270
  C     -1.166925   -0.529112    0.260451
  C      0.040450    0.251392   -0.186097
  O      0.018641    1.264501   -0.853629
  O      1.165784   -0.310287    0.240462
  C      2.406552    0.322231   -0.118188
  C      3.538991   -0.476718    0.496790
  H     -3.686231   -0.803191    1.376536
  H     -4.602138   -0.177463    0.005366
  H     -3.660233   -1.658431   -0.166907
  H     -2.516906    1.139176    0.314386
  H     -2.487848    0.286391   -1.220727
  H     -1.097728   -1.524541   -0.183480
  H     -1.104544   -0.653233    1.343003
  H      2.475696    0.352346   -1.210586
  H      2.387928    1.353383    0.249791
  H      3.435826   -0.496618    1.577570
  H      3.518898   -1.496540    0.124406
  H      4.486194   -0.017138    0.234815

 Total Charge           Charge          ....    0
 Multiplicity           Mult            ....    1
 Number of Electrons    NEL             ....   64
 Basis Dimension        Dim             ....  222

ORBITAL ENERGIES
----------------

  NO   OCC          E(Eh)            E(eV)
   0   2.0000     -18.994215      -516.8589
   1   2.0000     -18.928211      -515.0628
   2   2.0000     -10.150814      -276.2177
   3   2.0000     -10.090893      -274.5872
   4   2.0000     -10.041833      -273.2522
   5   2.0000     -10.031446      -272.9695
   6   2.0000     -10.028164      -272.8802
   7   2.0000     -10.019015      -272.6312
   8   2.0000      -1.070167       -29.1207
   9   2.0000      -0.974237       -26.5103
  10   2.0000      -0.771263       -20.9871
  11   2.0000      -0.743059       -20.2197
  12   2.0000      -0.680394       -18.5145
  13   2.0000      -0.614017       -16.7082
  14   2.0000      -0.562159       -15.2971
  15   2.0000      -0.528302       -14.3758
  16   2.0000      -0.468468       -12.7477
  17   2.0000      -0.464679       -12.6446
  18   2.0000      -0.440289       -11.9809
  19   2.0000      -0.432061       -11.7570
  20   2.0000      -0.394008       -10.7215
  21   2.0000      -0.387338       -10.5400
  22   2.0000      -0.373881       -10.1738
  23   2.0000      -0.369902       -10.0656
  24   2.0000      -0.356188        -9.6924
  25   2.0000      -0.328169        -8.9299
  26   2.0000      -0.324697        -8.8354
  27   2.0000      -0.313656        -8.5350
  28   2.0000      -0.309009        -8.4086
  29   2.0000      -0.303242        -8.2516
  30   2.0000      -0.270218        -7.3530
  31   2.0000      -0.234938        -6.3930
  32   0.0000      -0.011888        -0.3235
  33   0.0000       0.077147         2.0993
  34   0.0000       0.093106         2.5335
  35   0.0000       0.102247         2.7823
  36   0.0000       0.118492         3.2243

MULLIKEN ATOMIC CHARGES
-----------------------
   0 C :   -0.465503
   1 C :   -0.226000
   2 C :   -0.294023
   3 C :    0.350296
   4 O :   -0.423208
   5 O :   -0.159411
   6 C :   -0.152554
   7 C :   -0.441298
   8 H :    0.139598
   9 H :    0.150414
  10 H :    0.140292
  11 H :    0.146881
  12 H :    0.151591
  13 H :    0.160314
  14 H :    0.159953
  15 H :    0.155052
  16 H :    0.156617
  17 H :    0.151900
  18 H :    0.151906
  19 H :    0.147185
Sum of atomic charges:   -0.0000000

LOEWDIN ATOMIC CHARGES
----------------------
   0 C :   -0.422063
   1 C :   -0.297008
   2 C :   -0.233159
   3 C :    0.360701
   4 O :   -0.428982
   5 O :   -0.599803
   6 C :    0.033280
   7 C :   -0.386715
   8 H :    0.149483
   9 H :    0.152589
  10 H :    0.149514
  11 H :    0.161188
  12 H :    0.163352
  13 H :    0.181540
  14 H :    0.180939
  15 H :    0.178279
  16 H :    0.179089
  17 H :    0.159192
  18 H :    0.159269
  19 H :    0.159313

  Mayer bond orders larger than 0.100000
B(  0-C ,  1-C ) :   0.8767 B(  0-C ,  8-H ) :   0.9817 B(  0-C ,  9-H ) :   0.9761
B(  0-C , 10-H ) :   0.9840 B(  1-C ,  2-C ) :   0.9703 B(  1-C , 11-H ) :   0.9629
B(  1-C , 12-H ) :   0.9635 B(  2-C ,  3-C ) :   1.0047 B(  2-C , 13-H ) :   0.9442
B(  2-C , 14-H ) :   0.9509 B(  3-C ,  4-O ) :   1.8181 B(  3-C ,  5-O ) :   1.1002
B(  5-O ,  6-C ) :   0.8031 B(  6-C ,  7-C ) :   0.9401 B(  6-C , 15-H ) :   0.9528
B(  6-C , 16-H ) :   0.9543 B(  7-C , 17-H ) :   0.9727 B(  7-C , 18-H ) :   0.9724
B(  7-C , 19-H ) :   0.9687

Dispersion correction           -0.004775214
FINAL SINGLE POINT ENERGY      -386.236978053775

DIPOLE MOMENT
-------------

Method             : SCF
Type of density    : Electron Density
Multiplicity       :   1
Irrep              :   0
Energy             :  -386.2438117561052309 Eh
Relativity type    :
Basis              : AO
                                X                 Y                 Z
Electronic contribution:      2.993358690       2.868683774      -1.883915693
Nuclear contribution   :     -2.657231464      -3.453182326       2.283949542
                        -----------------------------------------
Total Dipole Moment    :      0.336127226      -0.584498552       0.400033849
                        -----------------------------------------
Magnitude (a.u.)       :      0.783994356
Magnitude (Debye)      :      1.992755285

Rotational constants in cm-1:             0.211328             0.027028             0.024515
Rotational constants in MHz :          6335.464884           810.269048           734.936451

                             ****ORCA TERMINATED NORMALLY****
TOTAL RUN TIME: 0 days 0 hours 0 minutes 28 seconds 734 msec
