                         Program Version 6.0.0  -   RELEASE  -
|  1> ! r2scan-3c def2/J RI DEFGRID2 scfconv6 printgap
|  2> %output
|  3>     printlevel normal
|  4> end
|  5> %cpcm
|  6>     smd true
|  7>     smdsolvent "water"
|  8> end
|  9> * xyz 0 1
| 10> C -3.6817648413 -0.675534611 0.2969874713
| 11> C -2.4757831696 0.1468042896 -0.1382696244
| 12> C -1.1669245351 -0.5291115055 0.2604510923
| 13> C 0.0404499291 0.2513919928 -0.1860969909
| 14> O 0.0186413488 1.2645014904 -0.8536293061
| 15> O 1.1657836417 -0.3102869459 0.2404623378
| 16> C 2.406552253 0.3222313534 -0.1181876748
| 17> C 3.5389907028 -0.4767176758 0.496790163
| 18> H -3.6862309184 -0.8031909131 1.376536269
| 19> H -4.6021383514 -0.1774629914 0.0053661913
| 20> H -3.6602328254 -1.6584314243 -0.1669074647
| 21> H -2.5169064419 1.1391757676 0.3143862859
| 22> H -2.4878475948 0.2863912878 -1.2207273947
| 23> H -1.0977282087 -1.5245414982 -0.1834803962
| 24> H -1.1045441147 -0.6532327527 1.3430032825
| 25> H 2.4756962792 0.3523464584 -1.2105861554
| 26> H 2.3879276245 1.3533834825 0.2497910465
| 27> H 3.4358260324 -0.4966181292 1.5775700805
| 28> H 3.51889812 -1.4965396561 0.1244058094
| 29> H 4.4861939995 -0.0171383557 0.2348154129
| 30> *
| 31>
| 32>                          ****END OF INPUT****

CARTESIAN COORDINATES (ANGSTROEM)
---------------------------------
  C     -3.681765   -0.675535    0.296987
  C     -2.475783    0.146804   -0.138270
  C     -1.166925   -0.529112    0.260451
  C      0.040450    0.251392   -0.186097
  O      0.018641    1.264501   -0.853629
  O      1.165784   -0.310287    0.240462
  C      2.406552    0.322231   -0.118188
  C      3.538991   -0.476718    0.496790
  H     -3.686231   -0.803191    1.376536
  H     -4.602138   -0.177463    0.005366
  H     -3.660233   -1.658431   -0.166907
  H     -2.516906    1.139176    0.314386
  H     -2.487848    0.286391   -1.220727
  H     -1.097728   -1.524541   -0.183480
  H     -1.104544   -0.653233    1.343003
  H      2.475696    0.352346   -1.210586
  H      2.387928    1.353383    0.249791
  H      3.435826   -0.496618    1.577570
  H      3.518898   -1.496540    0.124406
  H      4.486194   -0.017138    0.234815

 Total Charge           Charge          ....    0
 Multiplicity           Mult            ....    1
 Number of Electrons    NEL             ....   64
 Basis Dimension        Dim             ....  222

ORBITAL ENERGIES
----------------

  NO   OCC          E(Eh)            E(eV)
   0   2.0000     -19.000613      -517.0330
   1   2.0000     -18.944423      -515.5040
   2   2.0000     -10.161806      -276.5168
   3   2.0000     -10.083698      -274.3914
   4   2.0000     -10.035630      -273.0834
   5   2.0000     -10.023913      -272.7645
   6   2.0000     -10.018669      -272.6219
   7   2.0000     -10.010559      -272.4012
   8   2.0000      -1.078211       -29.3396
   9   2.0000      -0.988281       -26.8925
  10   2.0000      -0.767049       -20.8725
  11   2.0000      -0.735997       -20.0275
  12   2.0000      -0.674239       -18.3470
  13   2.0000      -0.607857       -16.5406
  14   2.0000      -0.556628       -15.1466
  15   2.0000      -0.527666       -14.3585
  16   2.0000      -0.468933       -12.7603
  17   2.0000      -0.467002       -12.7078
  18   2.0000      -0.445641       -12.1265
  19   2.0000      -0.432457       -11.7678
  20   2.0000      -0.390854       -10.6357
  21   2.0000      -0.380781       -10.3616
  22   2.0000      -0.371773       -10.1164
  23   2.0000      -0.360250        -9.8029
  24   2.0000      -0.347736        -9.4624
  25   2.0000      -0.324051        -8.8179
  26   2.0000      -0.323951        -8.8152
  27   2.0000      -0.312505        -8.5037
  28   2.0000      -0.305154        -8.3037
  29   2.0000      -0.298165        -8.1135
  30   2.0000      -0.275175        -7.4879
  31   2.0000      -0.252146        -6.8613
  32   0.0000      -0.020344        -0.5536
  33   0.0000       0.080267         2.1842
  34   0.0000       0.099373         2.7041
  35   0.0000       0.113179         3.0797
  36   0.0000       0.126992         3.4556

MULLIKEN ATOMIC CHARGES
-----------------------
   0 C :   -0.515258
   1 C :   -0.246335
   2 C :   -0.295051
   3 C :    0.394787
   4 O :   -0.508831
   5 O :   -0.177394
   6 C :   -0.156126
   7 C :   -0.491042
   8 H :    0.155654
   9 H :    0.160078
  10 H :    0.156412
  11 H :    0.154304
  12 H :    0.153364
  13 H :    0.189071
  14 H :    0.186104
  15 H :    0.170858
  16 H :    0.170705
  17 H :    0.164930
  18 H :    0.164738
  19 H :    0.169033
Sum of atomic charges:   -0.0000000

LOEWDIN ATOMIC CHARGES
----------------------
   0 C :   -0.426858
   1 C :   -0.300217
   2 C :   -0.229849
   3 C :    0.373233
   4 O :   -0.490729
   5 O :   -0.602580
   6 C :    0.035304
   7 C :   -0.389979
   8 H :    0.154394
   9 H :    0.154886
  10 H :    0.154374
  11 H :    0.160523
  12 H :    0.161179
  13 H :    0.193416
  14 H :    0.192148
  15 H :    0.183587
  16 H :    0.183922
  17 H :    0.162527
  18 H :    0.162571
  19 H :    0.168148

  Mayer bond orders larger than 0.100000
B(  0-C ,  1-C ) :   0.8793 B(  0-C ,  8-H ) :   0.9793 B(  0-C ,  9-H ) :   0.9729
B(  0-C , 10-H ) :   0.9813 B(  1-C ,  2-C ) :   0.9447 B(  1-C , 11-H ) :   0.9658
B(  1-C , 12-H ) :   0.9653 B(  2-C ,  3-C ) :   1.0128 B(  2-C , 13-H ) :   0.9299
B(  2-C , 14-H ) :   0.9374 B(  3-C ,  4-O ) :   1.7544 B(  3-C ,  5-O ) :   1.1256
B(  5-O ,  6-C ) :   0.7896 B(  6-C ,  7-C ) :   0.9407 B(  6-C , 15-H ) :   0.9452
B(  6-C , 16-H ) :   0.9469 B(  7-C , 17-H ) :   0.9708 B(  7-C , 18-H ) :   0.9705
B(  7-C , 19-H ) :   0.9620

Dispersion correction           -0.004775214
FINAL SINGLE POINT ENERGY      -386.242611243949

DIPOLE MOMENT
-------------

Method             : SCF
Type of density    : Electron Density
Multiplicity       :   1
Irrep              :   0
Energy             :  -386.2494449462787429 Eh
Relativity type    :
Basis              : AO
                                X                 Y                 Z
Electronic contribution:      3.094360116       2.571753888      -1.688396676
Nuclear contribution   :     -2.657231464      -3.453182326       2.283949542
                        -----------------------------------------
Total Dipole Moment    :      0.437128652      -0.881428439       0.595552866
                        -----------------------------------------
Magnitude (a.u.)       :      1.150078591
Magnitude (Debye)      :      2.923267463

Rotational constants in cm-1:             0.211328             0.027028             0.024515
Rotational constants in MHz :          6335.464884           810.269048           734.936451

                             ****ORCA TERMINATED NORMALLY****
TOTAL RUN TIME: 0 days 0 hours 0 minutes 37 seconds 390 msec
