                         Program Version 6.0.0  -   RELEASE  -
|  1> ! r2scan-3c def2/J RI DEFGRID2 scfconv6 printgap
|  2> %output
|  3>     printlevel normal
|  4> end
|  5> * xyz 0 1
|  6> C -3.4161680139 0.6046088993 0.4676147873
|  7> C -2.7560209063 -0.6830255721 -0.0121104293
|  8> C -1.3520696563 -0.4678772208 -0.5761918915
|  9> C -0.3425328533 -0.0413639203 0.4923554926
| 10> C 1.0170269108 0.1943439137 -0.1079763406
| 11> O 1.2294690683 0.7585609788 -1.1607878957
| 12> O 1.9827538806 -0.2978373393 0.6620337506
| 13> C 3.33750669 -0.1342025348 0.2323346167
| 14> H -3.4172803178 1.3484482951 -0.3257957439
| 15> H -4.4456935853 0.4113086178 0.758152623
| 16> H -2.8960404421 1.0173130626 1.3277472531
| 17> H -2.7076452214 -1.3975025743 0.8117368505
| 18> H -3.3728098134 -1.1236239715 -0.7975708184
| 19> H -1.3767613819 0.2942549113 -1.3575286492
| 20> H -1.0055467496 -1.3968786483 -1.0341535226
| 21> H -0.2532358246 -0.7897629925 1.2792595379
| 22> H -0.6607777449 0.9024842693 0.9395932922
| 23> H 3.6865705077 0.8640321985 0.4973574001
| 24> H 3.4034026678 -0.263624519 -0.8485828228
| 25> H 3.9100791754 -0.8936357677 0.7559319914
| 26> *
| 27>
| 28>                          ****END OF INPUT****

CARTESIAN COORDINATES (ANGSTROEM)
---------------------------------
  C     -3.416168    0.604609    0.467615
  C     -2.756021   -0.683026   -0.012110
  C     -1.352070   -0.467877   -0.576192
  C     -0.342533   -0.041364    0.492355
  C      1.017027    0.194344   -0.107976
  O      1.229469    0.758561   -1.160788
  O      1.982754   -0.297837    0.662034
  C      3.337507   -0.134203    0.232335
  H     -3.417280    1.348448   -0.325796
  H     -4.445694    0.411309    0.758153
  H     -2.896040    1.017313    1.327747
  H     -2.707645   -1.397503    0.811737
  H     -3.372810   -1.123624   -0.797571
  H     -1.376761    0.294255   -1.357529
  H     -1.005547   -1.396879   -1.034154
  H     -0.253236   -0.789763    1.279260
  H     -0.660778    0.902484    0.939593
  H      3.686571    0.864032    0.497357
  H      3.403403   -0.263625   -0.848583
  H      3.910079   -0.893636    0.755932

 Total Charge           Charge          ....    0
 Multiplicity           Mult            ....    1
 Number of Electrons    NEL             ....   64
 Basis Dimension        Dim             ....  222

ORBITAL ENERGIES
----------------

  NO   OCC          E(Eh)            E(eV)
   0   2.0000     -18.999076      -516.9911
   1   2.0000     -18.928612      -515.0737
   2   2.0000     -10.152439      -276.2619
   3   2.0000     -10.085793      -274.4484
   4   2.0000     -10.041743      -273.2497
   5   2.0000     -10.030678      -272.9486
   6   2.0000     -10.028923      -272.9009
   7   2.0000     -10.018800      -272.6254
   8   2.0000      -1.072415       -29.1819
   9   2.0000      -0.975944       -26.5568
  10   2.0000      -0.777580       -21.1590
  11   2.0000      -0.727691       -19.8015
  12   2.0000      -0.684881       -18.6366
  13   2.0000      -0.623389       -16.9633
  14   2.0000      -0.550409       -14.9774
  15   2.0000      -0.526740       -14.3333
  16   2.0000      -0.472096       -12.8464
  17   2.0000      -0.460280       -12.5249
  18   2.0000      -0.441891       -12.0245
  19   2.0000      -0.430681       -11.7194
  20   2.0000      -0.413999       -11.2655
  21   2.0000      -0.393078       -10.6962
  22   2.0000      -0.381905       -10.3922
  23   2.0000      -0.366929        -9.9846
  24   2.0000      -0.344447        -9.3729
  25   2.0000      -0.336683        -9.1616
  26   2.0000      -0.323315        -8.7978
  27   2.0000      -0.302113        -8.2209
  28   2.0000      -0.300450        -8.1757
  29   2.0000      -0.296749        -8.0749
  30   2.0000      -0.273623        -7.4457
  31   2.0000      -0.236993        -6.4489
  32   0.0000      -0.014292        -0.3889
  33   0.0000       0.066681         1.8145
  34   0.0000       0.092568         2.5189
  35   0.0000       0.099811         2.7160
  36   0.0000       0.117995         3.2108

MULLIKEN ATOMIC CHARGES
-----------------------
   0 C :   -0.495990
   1 C :   -0.202521
   2 C :   -0.272450
   3 C :   -0.336238
   4 C :    0.379289
   5 O :   -0.429325
   6 O :   -0.189825
   7 C :   -0.297664
   8 H :    0.150938
   9 H :    0.148634
  10 H :    0.143889
  11 H :    0.131562
  12 H :    0.146229
  13 H :    0.168807
  14 H :    0.141099
  15 H :    0.167065
  16 H :    0.169938
  17 H :    0.152921
  18 H :    0.173944
  19 H :    0.149698
Sum of atomic charges:    0.0000000

LOEWDIN ATOMIC CHARGES
----------------------
   0 C :   -0.425663
   1 C :   -0.315278
   2 C :   -0.286931
   3 C :   -0.228628
   4 C :    0.357981
   5 O :   -0.433283
   6 O :   -0.604210
   7 C :   -0.045625
   8 H :    0.152394
   9 H :    0.152151
  10 H :    0.147363
  11 H :    0.151709
  12 H :    0.154536
  13 H :    0.169559
  14 H :    0.160200
  15 H :    0.178598
  16 H :    0.182302
  17 H :    0.172809
  18 H :    0.184433
  19 H :    0.175583

  Mayer bond orders larger than 0.100000
B(  0-C ,  1-C ) :   0.8879 B(  0-C ,  8-H ) :   0.9821 B(  0-C ,  9-H ) :   0.9695
B(  0-C , 10-H ) :   0.9826 B(  1-C ,  2-C ) :   0.8796 B(  1-C , 11-H ) :   0.9777
B(  1-C , 12-H ) :   0.9723 B(  2-C ,  3-C ) :   0.8987 B(  2-C , 13-H ) :   0.9791
B(  2-C , 14-H ) :   0.9656 B(  3-C ,  4-C ) :   0.9985 B(  3-C , 15-H ) :   0.9788
B(  3-C , 16-H ) :   0.9396 B(  4-C ,  5-O ) :   1.8110 B(  4-C ,  6-O ) :   1.0648
B(  6-O ,  7-C ) :   0.8457 B(  7-C , 17-H ) :   0.9598 B(  7-C , 18-H ) :   0.9655
B(  7-C , 19-H ) :   0.9703

Dispersion correction           -0.004995095
FINAL SINGLE POINT ENERGY      -386.229832233876

DIPOLE MOMENT
-------------

Method             : SCF
Type of density    : Electron Density
Multiplicity       :   1
Irrep              :   0
Energy             :  -386.2368926272813496 Eh
Relativity type    :
Basis              : AO
                                X                 Y                 Z
Electronic contribution:      8.582140865       0.567628930      -1.274114126
Nuclear contribution   :     -8.523214467      -0.956841061       1.874705066
                        -----------------------------------------
Total Dipole Moment    :      0.058926397      -0.389212131       0.600590940
                        -----------------------------------------
Magnitude (a.u.)       :      0.718100189
Magnitude (Debye)      :      1.825265623

Rotational constants in cm-1:             0.198586             0.027101             0.026106
Rotational constants in MHz :          5953.468445           812.454544           782.652038

                             ****ORCA TERMINATED NORMALLY****
TOTAL RUN TIME: 0 days 0 hours 0 minutes 25 seconds 257 msec
