                         Program Version 6.0.0  -   RELEASE  -
|  1> ! r2scan-3c def2/J RI DEFGRID2 scfconv6 printgap
|  2> %output
|  3>     printlevel normal
|  4> end
|  5> %cpcm
|  6>     smd true
|  7>     smdsolvent "water"
|  8> end
|  9> * xyz 0 1
| 10> C -3.4161680139 0.6046088993 0.4676147873
| 11> C -2.7560209063 -0.6830255721 -0.0121104293
| 12> C -1.3520696563 -0.4678772208 -0.5761918915
| 13> C -0.3425328533 -0.0413639203 0.4923554926
| 14> C 1.0170269108 0.1943439137 -0.1079763406
| 15> O 1.2294690683 0.7585609788 -1.1607878957
| 16> O 1.9827538806 -0.2978373393 0.6620337506
| 17> C 3.33750669 -0.1342025348 0.2323346167
| 18> H -3.4172803178 1.3484482951 -0.3257957439
| 19> H -4.4456935853 0.4113086178 0.758152623
| 20> H -2.8960404421 1.0173130626 1.3277472531
| 21> H -2.7076452214 -1.3975025743 0.8117368505
| 22> H -3.3728098134 -1.1236239715 -0.7975708184
| 23> H -1.3767613819 0.2942549113 -1.3575286492
| 24> H -1.0055467496 -1.3968786483 -1.0341535226
| 25> H -0.2532358246 -0.7897629925 1.2792595379
| 26> H -0.6607777449 0.9024842693 0.9395932922
| 27> H 3.6865705077 0.8640321985 0.4973574001
| 28> H 3.4034026678 -0.263624519 -0.8485828228
| 29> H 3.9100791754 -0.8936357677 0.7559319914
| 30> *
| 31>
| 32>                          ****END OF INPUT****

CARTESIAN COORDINATES (ANGSTROEM)
---------------------------------
  C     -3.416168    0.604609    0.467615
  C     -2.756021   -0.683026   -0.012110
  C     -1.352070   -0.467877   -0.576192
  C     -0.342533   -0.041364    0.492355
  C      1.017027    0.194344   -0.107976
  O      1.229469    0.758561   -1.160788
  O      1.982754   -0.297837    0.662034
  C      3.337507   -0.134203    0.232335
  H     -3.417280    1.348448   -0.325796
  H     -4.445694    0.411309    0.758153
  H     -2.896040    1.017313    1.327747
  H     -2.707645   -1.397503    0.811737
  H     -3.372810   -1.123624   -0.797571
  H     -1.376761    0.294255   -1.357529
  H     -1.005547   -1.396879   -1.034154
  H     -0.253236   -0.789763    1.279260
  H     -0.660778    0.902484    0.939593
  H      3.686571    0.864032    0.497357
  H      3.403403   -0.263625   -0.848583
  H      3.910079   -0.893636    0.755932

 Total Charge           Charge          ....    0
 Multiplicity           Mult            ....    1
 Number of Electrons    NEL             ....   64
 Basis Dimension        Dim             ....  222

ORBITAL ENERGIES
----------------

  NO   OCC          E(Eh)            E(eV)
   0   2.0000     -19.004422      -517.1366
   1   2.0000     -18.943884      -515.4893
   2   2.0000     -10.162405      -276.5331
   3   2.0000     -10.075757      -274.1753
   4   2.0000     -10.035218      -273.0722
   5   2.0000     -10.024466      -272.7796
   6   2.0000     -10.019150      -272.6349
   7   2.0000     -10.008187      -272.3366
   8   2.0000      -1.079252       -29.3679
   9   2.0000      -0.989134       -26.9157
  10   2.0000      -0.771165       -20.9845
  11   2.0000      -0.722278       -19.6542
  12   2.0000      -0.678060       -18.4510
  13   2.0000      -0.615634       -16.7523
  14   2.0000      -0.544043       -14.8042
  15   2.0000      -0.523780       -14.2528
  16   2.0000      -0.472217       -12.8497
  17   2.0000      -0.460650       -12.5349
  18   2.0000      -0.451569       -12.2878
  19   2.0000      -0.424234       -11.5440
  20   2.0000      -0.405757       -11.0412
  21   2.0000      -0.391498       -10.6532
  22   2.0000      -0.377162       -10.2631
  23   2.0000      -0.360290        -9.8040
  24   2.0000      -0.341470        -9.2919
  25   2.0000      -0.329914        -8.9774
  26   2.0000      -0.323687        -8.8080
  27   2.0000      -0.295662        -8.0454
  28   2.0000      -0.292464        -7.9584
  29   2.0000      -0.288810        -7.8589
  30   2.0000      -0.280649        -7.6368
  31   2.0000      -0.252870        -6.8809
  32   0.0000      -0.021705        -0.5906
  33   0.0000       0.071754         1.9525
  34   0.0000       0.101169         2.7529
  35   0.0000       0.108793         2.9604
  36   0.0000       0.127976         3.4824

MULLIKEN ATOMIC CHARGES
-----------------------
   0 C :   -0.532849
   1 C :   -0.223225
   2 C :   -0.279714
   3 C :   -0.355613
   4 C :    0.427546
   5 O :   -0.514835
   6 O :   -0.207225
   7 C :   -0.326029
   8 H :    0.158122
   9 H :    0.158199
  10 H :    0.159745
  11 H :    0.145033
  12 H :    0.155613
  13 H :    0.159273
  14 H :    0.157871
  15 H :    0.182275
  16 H :    0.201481
  17 H :    0.179163
  18 H :    0.178039
  19 H :    0.177131
Sum of atomic charges:    0.0000000

LOEWDIN ATOMIC CHARGES
----------------------
   0 C :   -0.433425
   1 C :   -0.314732
   2 C :   -0.289218
   3 C :   -0.225522
   4 C :    0.368726
   5 O :   -0.494719
   6 O :   -0.606734
   7 C :   -0.042468
   8 H :    0.153725
   9 H :    0.154152
  10 H :    0.152291
  11 H :    0.156128
  12 H :    0.157038
  13 H :    0.165132
  14 H :    0.164003
  15 H :    0.186367
  16 H :    0.193711
  17 H :    0.181750
  18 H :    0.186137
  19 H :    0.187659

  Mayer bond orders larger than 0.100000
B(  0-C ,  1-C ) :   0.8813 B(  0-C ,  8-H ) :   0.9803 B(  0-C ,  9-H ) :   0.9675
B(  0-C , 10-H ) :   0.9780 B(  1-C ,  2-C ) :   0.8830 B(  1-C , 11-H ) :   0.9786
B(  1-C , 12-H ) :   0.9724 B(  2-C ,  3-C ) :   0.8889 B(  2-C , 13-H ) :   0.9766
B(  2-C , 14-H ) :   0.9652 B(  3-C ,  4-C ) :   0.9978 B(  3-C , 15-H ) :   0.9708
B(  3-C , 16-H ) :   0.9290 B(  4-C ,  5-O ) :   1.7492 B(  4-C ,  6-O ) :   1.0894
B(  6-O ,  7-C ) :   0.8282 B(  7-C , 17-H ) :   0.9529 B(  7-C , 18-H ) :   0.9611
B(  7-C , 19-H ) :   0.9603

Dispersion correction           -0.004995095
FINAL SINGLE POINT ENERGY      -386.234595484636

DIPOLE MOMENT
-------------

Method             : SCF
Type of density    : Electron Density
Multiplicity       :   1
Irrep              :   0
Energy             :  -386.2416558780413425 Eh
Relativity type    :
Basis              : AO
                                X                 Y                 Z
Electronic contribution:      8.601403265       0.401610695      -0.949440267
Nuclear contribution   :     -8.523214467      -0.956841061       1.874705066
                        -----------------------------------------
Total Dipole Moment    :      0.078188798      -0.555230366       0.925264799
                        -----------------------------------------
Magnitude (a.u.)       :      1.081900733
Magnitude (Debye)      :      2.749973120

Rotational constants in cm-1:             0.198586             0.027101             0.026106
Rotational constants in MHz :          5953.468445           812.454544           782.652038

                             ****ORCA TERMINATED NORMALLY****
TOTAL RUN TIME: 0 days 0 hours 0 minutes 33 seconds 199 msec
