                         Program Version 6.0.0  -   RELEASE  -
|  1> ! r2scan-3c def2/J RI DEFGRID2 scfconv6 printgap
|  2> %output
|  3>     printlevel normal
|  4> end
|  5> * xyz 0 1
|  6> C -2.4219918417 -1.3705686086 -0.3510797837
|  7> C -2.5395521054 0.0955548363 0.0477494604
|  8> C -1.3096264799 0.5681451239 0.8254764772
|  9> C -0.0832833325 0.6149690428 -0.0505695032
| 10> O -0.0587126308 1.0255041458 -1.1927020538
| 11> O 0.9843376056 0.1603042934 0.5912521488
| 12> C 2.2556587195 0.1421100527 -0.081242841
| 13> C 2.9862289955 -1.1383843697 0.282170097
| 14> H -2.2998320073 -1.9982002064 0.5284834167
| 15> H -3.3129501036 -1.6907791737 -0.884426373
| 16> H -1.5627071225 -1.5166510656 -1.0028739327
| 17> H -3.425358088 0.2372483349 0.6672600039
| 18> H -2.6426101218 0.7105786333 -0.8481317329
| 19> H -1.1030321404 -0.0798517702 1.6766345948
| 20> H -1.475792178 1.5840888856 1.1901966018
| 21> H 2.0795131224 0.2203567208 -1.1587449108
| 22> H 2.8123992824 1.0219538365 0.2541882161
| 23> H 3.1068443845 -1.2019229954 1.3595668702
| 24> H 2.4249359263 -2.0036421197 -0.0595564057
| 25> H 3.9635126871 -1.1390839865 -0.1893160767
| 26> *
| 27>
| 28>                          ****END OF INPUT****

CARTESIAN COORDINATES (ANGSTROEM)
---------------------------------
  C     -2.421992   -1.370569   -0.351080
  C     -2.539552    0.095555    0.047749
  C     -1.309626    0.568145    0.825476
  C     -0.083283    0.614969   -0.050570
  O     -0.058713    1.025504   -1.192702
  O      0.984338    0.160304    0.591252
  C      2.255659    0.142110   -0.081243
  C      2.986229   -1.138384    0.282170
  H     -2.299832   -1.998200    0.528483
  H     -3.312950   -1.690779   -0.884426
  H     -1.562707   -1.516651   -1.002874
  H     -3.425358    0.237248    0.667260
  H     -2.642610    0.710579   -0.848132
  H     -1.103032   -0.079852    1.676635
  H     -1.475792    1.584089    1.190197
  H      2.079513    0.220357   -1.158745
  H      2.812399    1.021954    0.254188
  H      3.106844   -1.201923    1.359567
  H      2.424936   -2.003642   -0.059556
  H      3.963513   -1.139084   -0.189316

 Total Charge           Charge          ....    0
 Multiplicity           Mult            ....    1
 Number of Electrons    NEL             ....   64
 Basis Dimension        Dim             ....  222

ORBITAL ENERGIES
----------------

  NO   OCC          E(Eh)            E(eV)
   0   2.0000     -18.996676      -516.9258
   1   2.0000     -18.926975      -515.0292
   2   2.0000     -10.151642      -276.2402
   3   2.0000     -10.090034      -274.5638
   4   2.0000     -10.040486      -273.2155
   5   2.0000     -10.031907      -272.9821
   6   2.0000     -10.031310      -272.9658
   7   2.0000     -10.017577      -272.5921
   8   2.0000      -1.070734       -29.1362
   9   2.0000      -0.974952       -26.5298
  10   2.0000      -0.772052       -21.0086
  11   2.0000      -0.742429       -20.2025
  12   2.0000      -0.677416       -18.4334
  13   2.0000      -0.619540       -16.8585
  14   2.0000      -0.564162       -15.3516
  15   2.0000      -0.526188       -14.3183
  16   2.0000      -0.470499       -12.8029
  17   2.0000      -0.461970       -12.5708
  18   2.0000      -0.440054       -11.9745
  19   2.0000      -0.422180       -11.4881
  20   2.0000      -0.404859       -11.0168
  21   2.0000      -0.386152       -10.5077
  22   2.0000      -0.376117       -10.2347
  23   2.0000      -0.367962       -10.0128
  24   2.0000      -0.355493        -9.6735
  25   2.0000      -0.340583        -9.2677
  26   2.0000      -0.316499        -8.6124
  27   2.0000      -0.309196        -8.4136
  28   2.0000      -0.307199        -8.3593
  29   2.0000      -0.304128        -8.2758
  30   2.0000      -0.270453        -7.3594
  31   2.0000      -0.236094        -6.4244
  32   0.0000      -0.013787        -0.3752
  33   0.0000       0.075871         2.0646
  34   0.0000       0.093234         2.5370
  35   0.0000       0.106364         2.8943
  36   0.0000       0.125369         3.4115

MULLIKEN ATOMIC CHARGES
-----------------------
   0 C :   -0.498702
   1 C :   -0.205382
   2 C :   -0.301642
   3 C :    0.347651
   4 O :   -0.433725
   5 O :   -0.164882
   6 C :   -0.163069
   7 C :   -0.441742
   8 H :    0.143674
   9 H :    0.148020
  10 H :    0.158128
  11 H :    0.142126
  12 H :    0.159726
  13 H :    0.164346
  14 H :    0.167982
  15 H :    0.183284
  16 H :    0.142859
  17 H :    0.152975
  18 H :    0.151591
  19 H :    0.146783
Sum of atomic charges:    0.0000000

LOEWDIN ATOMIC CHARGES
----------------------
   0 C :   -0.417266
   1 C :   -0.296313
   2 C :   -0.232439
   3 C :    0.358539
   4 O :   -0.444613
   5 O :   -0.597076
   6 C :    0.031123
   7 C :   -0.387035
   8 H :    0.149305
   9 H :    0.152843
  10 H :    0.156685
  11 H :    0.152460
  12 H :    0.169137
  13 H :    0.177979
  14 H :    0.182809
  15 H :    0.193448
  16 H :    0.174604
  17 H :    0.158369
  18 H :    0.158325
  19 H :    0.159115

  Mayer bond orders larger than 0.100000
B(  0-C ,  1-C ) :   0.9075 B(  0-C ,  8-H ) :   0.9826 B(  0-C ,  9-H ) :   0.9688
B(  0-C , 10-H ) :   0.9749 B(  1-C ,  2-C ) :   0.8955 B(  1-C , 11-H ) :   0.9648
B(  1-C , 12-H ) :   0.9628 B(  2-C ,  3-C ) :   0.9542 B(  2-C , 13-H ) :   0.9977
B(  2-C , 14-H ) :   0.9304 B(  3-C ,  4-O ) :   1.8362 B(  3-C ,  5-O ) :   1.0689
B(  5-O ,  6-C ) :   0.7813 B(  6-C ,  7-C ) :   0.9487 B(  6-C , 15-H ) :   0.9666
B(  6-C , 16-H ) :   0.9481 B(  7-C , 17-H ) :   0.9701 B(  7-C , 18-H ) :   0.9729
B(  7-C , 19-H ) :   0.9677

Dispersion correction           -0.005024560
FINAL SINGLE POINT ENERGY      -386.235682393380

DIPOLE MOMENT
-------------

Method             : SCF
Type of density    : Electron Density
Multiplicity       :   1
Irrep              :   0
Energy             :  -386.2424467740007685 Eh
Relativity type    :
Basis              : AO
                                X                 Y                 Z
Electronic contribution:      1.620064952       5.117417214      -0.797792086
Nuclear contribution   :     -1.332615528      -5.476231610       1.429554091
                        -----------------------------------------
Total Dipole Moment    :      0.287449424      -0.358814396       0.631762005
                        -----------------------------------------
Magnitude (a.u.)       :      0.781343825
Magnitude (Debye)      :      1.986018172

Rotational constants in cm-1:             0.126372             0.034713             0.032151
Rotational constants in MHz :          3788.527456          1040.682606           963.855392

                             ****ORCA TERMINATED NORMALLY****
TOTAL RUN TIME: 0 days 0 hours 0 minutes 31 seconds 972 msec
