                         Program Version 6.0.0  -   RELEASE  -
|  1> ! r2scan-3c def2/J RI DEFGRID2 scfconv6 printgap
|  2> %output
|  3>     printlevel normal
|  4> end
|  5> %cpcm
|  6>     smd true
|  7>     smdsolvent "water"
|  8> end
|  9> * xyz 0 1
| 10> C -2.4219918417 -1.3705686086 -0.3510797837
| 11> C -2.5395521054 0.0955548363 0.0477494604
| 12> C -1.3096264799 0.5681451239 0.8254764772
| 13> C -0.0832833325 0.6149690428 -0.0505695032
| 14> O -0.0587126308 1.0255041458 -1.1927020538
| 15> O 0.9843376056 0.1603042934 0.5912521488
| 16> C 2.2556587195 0.1421100527 -0.081242841
| 17> C 2.9862289955 -1.1383843697 0.282170097
| 18> H -2.2998320073 -1.9982002064 0.5284834167
| 19> H -3.3129501036 -1.6907791737 -0.884426373
| 20> H -1.5627071225 -1.5166510656 -1.0028739327
| 21> H -3.425358088 0.2372483349 0.6672600039
| 22> H -2.6426101218 0.7105786333 -0.8481317329
| 23> H -1.1030321404 -0.0798517702 1.6766345948
| 24> H -1.475792178 1.5840888856 1.1901966018
| 25> H 2.0795131224 0.2203567208 -1.1587449108
| 26> H 2.8123992824 1.0219538365 0.2541882161
| 27> H 3.1068443845 -1.2019229954 1.3595668702
| 28> H 2.4249359263 -2.0036421197 -0.0595564057
| 29> H 3.9635126871 -1.1390839865 -0.1893160767
| 30> *
| 31>
| 32>                          ****END OF INPUT****

CARTESIAN COORDINATES (ANGSTROEM)
---------------------------------
  C     -2.421992   -1.370569   -0.351080
  C     -2.539552    0.095555    0.047749
  C     -1.309626    0.568145    0.825476
  C     -0.083283    0.614969   -0.050570
  O     -0.058713    1.025504   -1.192702
  O      0.984338    0.160304    0.591252
  C      2.255659    0.142110   -0.081243
  C      2.986229   -1.138384    0.282170
  H     -2.299832   -1.998200    0.528483
  H     -3.312950   -1.690779   -0.884426
  H     -1.562707   -1.516651   -1.002874
  H     -3.425358    0.237248    0.667260
  H     -2.642610    0.710579   -0.848132
  H     -1.103032   -0.079852    1.676635
  H     -1.475792    1.584089    1.190197
  H      2.079513    0.220357   -1.158745
  H      2.812399    1.021954    0.254188
  H      3.106844   -1.201923    1.359567
  H      2.424936   -2.003642   -0.059556
  H      3.963513   -1.139084   -0.189316

 Total Charge           Charge          ....    0
 Multiplicity           Mult            ....    1
 Number of Electrons    NEL             ....   64
 Basis Dimension        Dim             ....  222

ORBITAL ENERGIES
----------------

  NO   OCC          E(Eh)            E(eV)
   0   2.0000     -19.002474      -517.0836
   1   2.0000     -18.942719      -515.4576
   2   2.0000     -10.162398      -276.5329
   3   2.0000     -10.082317      -274.3538
   4   2.0000     -10.035138      -273.0700
   5   2.0000     -10.026395      -272.8321
   6   2.0000     -10.018507      -272.6174
   7   2.0000     -10.010896      -272.4103
   8   2.0000      -1.078169       -29.3385
   9   2.0000      -0.988572       -26.9004
  10   2.0000      -0.768377       -20.9086
  11   2.0000      -0.735173       -20.0051
  12   2.0000      -0.672081       -18.2882
  13   2.0000      -0.613392       -16.6912
  14   2.0000      -0.558395       -15.1947
  15   2.0000      -0.525324       -14.2948
  16   2.0000      -0.472633       -12.8610
  17   2.0000      -0.461380       -12.5548
  18   2.0000      -0.447135       -12.1672
  19   2.0000      -0.421839       -11.4788
  20   2.0000      -0.401155       -10.9160
  21   2.0000      -0.382502       -10.4084
  22   2.0000      -0.367378        -9.9969
  23   2.0000      -0.360880        -9.8200
  24   2.0000      -0.354254        -9.6397
  25   2.0000      -0.335751        -9.1362
  26   2.0000      -0.311435        -8.4746
  27   2.0000      -0.305224        -8.3056
  28   2.0000      -0.303046        -8.2463
  29   2.0000      -0.302253        -8.2247
  30   2.0000      -0.276830        -7.5329
  31   2.0000      -0.252088        -6.8597
  32   0.0000      -0.021778        -0.5926
  33   0.0000       0.078072         2.1244
  34   0.0000       0.100655         2.7390
  35   0.0000       0.117153         3.1879
  36   0.0000       0.132362         3.6018

MULLIKEN ATOMIC CHARGES
-----------------------
   0 C :   -0.528914
   1 C :   -0.220934
   2 C :   -0.313814
   3 C :    0.385495
   4 O :   -0.517271
   5 O :   -0.185553
   6 C :   -0.153406
   7 C :   -0.485473
   8 H :    0.160161
   9 H :    0.160665
  10 H :    0.160802
  11 H :    0.161506
  12 H :    0.151741
  13 H :    0.180165
  14 H :    0.199286
  15 H :    0.178647
  16 H :    0.169485
  17 H :    0.164922
  18 H :    0.164160
  19 H :    0.168331
Sum of atomic charges:    0.0000000

LOEWDIN ATOMIC CHARGES
----------------------
   0 C :   -0.424015
   1 C :   -0.296329
   2 C :   -0.229342
   3 C :    0.368464
   4 O :   -0.504490
   5 O :   -0.599494
   6 C :    0.035899
   7 C :   -0.390311
   8 H :    0.155244
   9 H :    0.155860
  10 H :    0.156031
  11 H :    0.160054
  12 H :    0.164121
  13 H :    0.185752
  14 H :    0.194165
  15 H :    0.192780
  16 H :    0.184859
  17 H :    0.161768
  18 H :    0.161290
  19 H :    0.167694

  Mayer bond orders larger than 0.100000
B(  0-C ,  1-C ) :   0.9057 B(  0-C ,  8-H ) :   0.9782 B(  0-C ,  9-H ) :   0.9664
B(  0-C , 10-H ) :   0.9726 B(  1-C ,  2-C ) :   0.8797 B(  1-C , 11-H ) :   0.9606
B(  1-C , 12-H ) :   0.9691 B(  2-C ,  3-C ) :   0.9571 B(  2-C , 13-H ) :   0.9869
B(  2-C , 14-H ) :   0.9218 B(  3-C ,  4-O ) :   1.7697 B(  3-C ,  5-O ) :   1.0935
B(  5-O ,  6-C ) :   0.7708 B(  6-C ,  7-C ) :   0.9438 B(  6-C , 15-H ) :   0.9620
B(  6-C , 16-H ) :   0.9397 B(  7-C , 17-H ) :   0.9675 B(  7-C , 18-H ) :   0.9708
B(  7-C , 19-H ) :   0.9616

Dispersion correction           -0.005024560
FINAL SINGLE POINT ENERGY      -386.240506019222

DIPOLE MOMENT
-------------

Method             : SCF
Type of density    : Electron Density
Multiplicity       :   1
Irrep              :   0
Energy             :  -386.2472703998424208 Eh
Relativity type    :
Basis              : AO
                                X                 Y                 Z
Electronic contribution:      1.705854534       4.993430755      -0.468480665
Nuclear contribution   :     -1.332615528      -5.476231610       1.429554091
                        -----------------------------------------
Total Dipole Moment    :      0.373239006      -0.482800855       0.961073427
                        -----------------------------------------
Magnitude (a.u.)       :      1.138449012
Magnitude (Debye)      :      2.893707421

Rotational constants in cm-1:             0.126372             0.034713             0.032151
Rotational constants in MHz :          3788.527456          1040.682606           963.855392

                             ****ORCA TERMINATED NORMALLY****
TOTAL RUN TIME: 0 days 0 hours 0 minutes 38 seconds 10 msec
