                         Program Version 6.0.0  -   RELEASE  -
|  1> ! r2scan-3c def2/J RI DEFGRID2 scfconv6 printgap
|  2> %output
|  3>     printlevel normal
|  4> end
|  5> * xyz 0 1
|  6> C -3.5363431402 -0.6501894981 0.4554011465
|  7> C -2.1789083962 0.034564448 0.5491274402
|  8> C -1.2176983691 -0.4893001914 -0.5286324334
|  9> C 0.0970570211 0.2327538214 -0.4097397273
| 10> O 0.3793363759 1.2586435708 -0.9940586533
| 11> O 0.9013252507 -0.3644568576 0.4600491584
| 12> C 2.1860055291 0.2235981861 0.7249873009
| 13> C 3.2282321531 -0.2677319481 -0.2678963731
| 14> H -3.4310358847 -1.7234288546 0.5904867246
| 15> H -4.2016719938 -0.2680376014 1.2246747946
| 16> H -3.9894679211 -0.4665040505 -0.515365081
| 17> H -1.7410054265 -0.1456987306 1.5327123191
| 18> H -2.2979976543 1.1129134062 0.4240016323
| 19> H -1.6342403922 -0.298472734 -1.5172322116
| 20> H -1.0535723378 -1.5565372369 -0.386553189
| 21> H 2.0885062004 1.3123153376 0.6740417975
| 22> H 2.4275102263 -0.0892060076 1.74129831
| 23> H 2.9694896753 0.0607156607 -1.2720910783
| 24> H 4.1980950479 0.1401873842 -0.0026661849
| 25> H 3.2778351527 -1.3530847062 -0.2519073514
| 26> *
| 27>
| 28>                          ****END OF INPUT****

CARTESIAN COORDINATES (ANGSTROEM)
---------------------------------
  C     -3.536343   -0.650189    0.455401
  C     -2.178908    0.034564    0.549127
  C     -1.217698   -0.489300   -0.528632
  C      0.097057    0.232754   -0.409740
  O      0.379336    1.258644   -0.994059
  O      0.901325   -0.364457    0.460049
  C      2.186006    0.223598    0.724987
  C      3.228232   -0.267732   -0.267896
  H     -3.431036   -1.723429    0.590487
  H     -4.201672   -0.268038    1.224675
  H     -3.989468   -0.466504   -0.515365
  H     -1.741005   -0.145699    1.532712
  H     -2.297998    1.112913    0.424002
  H     -1.634240   -0.298473   -1.517232
  H     -1.053572   -1.556537   -0.386553
  H      2.088506    1.312315    0.674042
  H      2.427510   -0.089206    1.741298
  H      2.969490    0.060716   -1.272091
  H      4.198095    0.140187   -0.002666
  H      3.277835   -1.353085   -0.251907

 Total Charge           Charge          ....    0
 Multiplicity           Mult            ....    1
 Number of Electrons    NEL             ....   64
 Basis Dimension        Dim             ....  222

ORBITAL ENERGIES
----------------

  NO   OCC          E(Eh)            E(eV)
   0   2.0000     -18.995270      -516.8876
   1   2.0000     -18.925789      -514.9969
   2   2.0000     -10.149966      -276.1946
   3   2.0000     -10.090343      -274.5722
   4   2.0000     -10.039981      -273.2018
   5   2.0000     -10.038564      -273.1632
   6   2.0000     -10.028030      -272.8766
   7   2.0000     -10.023470      -272.7525
   8   2.0000      -1.070053       -29.1176
   9   2.0000      -0.973426       -26.4883
  10   2.0000      -0.775042       -21.0900
  11   2.0000      -0.739104       -20.1121
  12   2.0000      -0.680676       -18.5221
  13   2.0000      -0.621400       -16.9091
  14   2.0000      -0.567836       -15.4516
  15   2.0000      -0.523296       -14.2396
  16   2.0000      -0.472457       -12.8562
  17   2.0000      -0.454748       -12.3743
  18   2.0000      -0.436652       -11.8819
  19   2.0000      -0.424521       -11.5518
  20   2.0000      -0.410350       -11.1662
  21   2.0000      -0.390467       -10.6252
  22   2.0000      -0.376505       -10.2452
  23   2.0000      -0.361617        -9.8401
  24   2.0000      -0.355244        -9.6667
  25   2.0000      -0.339841        -9.2476
  26   2.0000      -0.328112        -8.9284
  27   2.0000      -0.314421        -8.5558
  28   2.0000      -0.309983        -8.4351
  29   2.0000      -0.302639        -8.2352
  30   2.0000      -0.269084        -7.3222
  31   2.0000      -0.232261        -6.3202
  32   0.0000      -0.013514        -0.3677
  33   0.0000       0.077013         2.0956
  34   0.0000       0.091531         2.4907
  35   0.0000       0.105267         2.8645
  36   0.0000       0.121963         3.3188

MULLIKEN ATOMIC CHARGES
-----------------------
   0 C :   -0.474504
   1 C :   -0.230941
   2 C :   -0.347291
   3 C :    0.428897
   4 O :   -0.433290
   5 O :   -0.184570
   6 C :   -0.138562
   7 C :   -0.466330
   8 H :    0.144716
   9 H :    0.150753
  10 H :    0.146590
  11 H :    0.147748
  12 H :    0.154757
  13 H :    0.161520
  14 H :    0.155985
  15 H :    0.168090
  16 H :    0.147041
  17 H :    0.172091
  18 H :    0.146369
  19 H :    0.150930
Sum of atomic charges:    0.0000000

LOEWDIN ATOMIC CHARGES
----------------------
   0 C :   -0.419575
   1 C :   -0.287115
   2 C :   -0.229556
   3 C :    0.356425
   4 O :   -0.433844
   5 O :   -0.597014
   6 C :    0.027056
   7 C :   -0.390221
   8 H :    0.150620
   9 H :    0.153138
  10 H :    0.151461
  11 H :    0.158353
  12 H :    0.160897
  13 H :    0.176812
  14 H :    0.176106
  15 H :    0.188295
  16 H :    0.177165
  17 H :    0.165181
  18 H :    0.158956
  19 H :    0.156859

  Mayer bond orders larger than 0.100000
B(  0-C ,  1-C ) :   0.8946 B(  0-C ,  8-H ) :   0.9852 B(  0-C ,  9-H ) :   0.9717
B(  0-C , 10-H ) :   0.9845 B(  1-C ,  2-C ) :   0.9270 B(  1-C , 11-H ) :   0.9618
B(  1-C , 12-H ) :   0.9592 B(  2-C ,  3-C ) :   0.9564 B(  2-C , 13-H ) :   0.9787
B(  2-C , 14-H ) :   0.9813 B(  3-C ,  4-O ) :   1.8402 B(  3-C ,  5-O ) :   1.0310
B(  5-O ,  6-C ) :   0.8193 B(  6-C ,  7-C ) :   0.9382 B(  6-C , 15-H ) :   0.9664
B(  6-C , 16-H ) :   0.9608 B(  7-C , 17-H ) :   0.9712 B(  7-C , 18-H ) :   0.9657
B(  7-C , 19-H ) :   0.9735

Dispersion correction           -0.004959915
FINAL SINGLE POINT ENERGY      -386.235696023270

DIPOLE MOMENT
-------------

Method             : SCF
Type of density    : Electron Density
Multiplicity       :   1
Irrep              :   0
Energy             :  -386.2423890542282265 Eh
Relativity type    :
Basis              : AO
                                X                 Y                 Z
Electronic contribution:      3.226930793       2.464962763      -1.561392530
Nuclear contribution   :     -3.159101716      -3.059084931       2.094888909
                        -----------------------------------------
Total Dipole Moment    :      0.067829077      -0.594122168       0.533496379
                        -----------------------------------------
Magnitude (a.u.)       :      0.801374020
Magnitude (Debye)      :      2.036930882

Rotational constants in cm-1:             0.179231             0.030001             0.028169
Rotational constants in MHz :          5373.197907           899.414652           844.476691

                             ****ORCA TERMINATED NORMALLY****
TOTAL RUN TIME: 0 days 0 hours 0 minutes 30 seconds 712 msec
