                         Program Version 6.0.0  -   RELEASE  -
|  1> ! r2scan-3c def2/J RI DEFGRID2 scfconv6 printgap
|  2> %output
|  3>     printlevel normal
|  4> end
|  5> %cpcm
|  6>     smd true
|  7>     smdsolvent "water"
|  8> end
|  9> * xyz 0 1
| 10> C -3.5363431402 -0.6501894981 0.4554011465
| 11> C -2.1789083962 0.034564448 0.5491274402
| 12> C -1.2176983691 -0.4893001914 -0.5286324334
| 13> C 0.0970570211 0.2327538214 -0.4097397273
| 14> O 0.3793363759 1.2586435708 -0.9940586533
| 15> O 0.9013252507 -0.3644568576 0.4600491584
| 16> C 2.1860055291 0.2235981861 0.7249873009
| 17> C 3.2282321531 -0.2677319481 -0.2678963731
| 18> H -3.4310358847 -1.7234288546 0.5904867246
| 19> H -4.2016719938 -0.2680376014 1.2246747946
| 20> H -3.9894679211 -0.4665040505 -0.515365081
| 21> H -1.7410054265 -0.1456987306 1.5327123191
| 22> H -2.2979976543 1.1129134062 0.4240016323
| 23> H -1.6342403922 -0.298472734 -1.5172322116
| 24> H -1.0535723378 -1.5565372369 -0.386553189
| 25> H 2.0885062004 1.3123153376 0.6740417975
| 26> H 2.4275102263 -0.0892060076 1.74129831
| 27> H 2.9694896753 0.0607156607 -1.2720910783
| 28> H 4.1980950479 0.1401873842 -0.0026661849
| 29> H 3.2778351527 -1.3530847062 -0.2519073514
| 30> *
| 31>
| 32>                          ****END OF INPUT****

CARTESIAN COORDINATES (ANGSTROEM)
---------------------------------
  C     -3.536343   -0.650189    0.455401
  C     -2.178908    0.034564    0.549127
  C     -1.217698   -0.489300   -0.528632
  C      0.097057    0.232754   -0.409740
  O      0.379336    1.258644   -0.994059
  O      0.901325   -0.364457    0.460049
  C      2.186006    0.223598    0.724987
  C      3.228232   -0.267732   -0.267896
  H     -3.431036   -1.723429    0.590487
  H     -4.201672   -0.268038    1.224675
  H     -3.989468   -0.466504   -0.515365
  H     -1.741005   -0.145699    1.532712
  H     -2.297998    1.112913    0.424002
  H     -1.634240   -0.298473   -1.517232
  H     -1.053572   -1.556537   -0.386553
  H      2.088506    1.312315    0.674042
  H      2.427510   -0.089206    1.741298
  H      2.969490    0.060716   -1.272091
  H      4.198095    0.140187   -0.002666
  H      3.277835   -1.353085   -0.251907

 Total Charge           Charge          ....    0
 Multiplicity           Mult            ....    1
 Number of Electrons    NEL             ....   64
 Basis Dimension        Dim             ....  222

ORBITAL ENERGIES
----------------

  NO   OCC          E(Eh)            E(eV)
   0   2.0000     -19.001852      -517.0667
   1   2.0000     -18.942807      -515.4600
   2   2.0000     -10.161564      -276.5102
   3   2.0000     -10.083190      -274.3776
   4   2.0000     -10.034639      -273.0564
   5   2.0000     -10.030432      -272.9419
   6   2.0000     -10.018270      -272.6110
   7   2.0000     -10.011990      -272.4401
   8   2.0000      -1.078350       -29.3434
   9   2.0000      -0.988277       -26.8924
  10   2.0000      -0.769888       -20.9497
  11   2.0000      -0.732368       -19.9287
  12   2.0000      -0.674151       -18.3446
  13   2.0000      -0.616440       -16.7742
  14   2.0000      -0.559939       -15.2367
  15   2.0000      -0.521817       -14.1994
  16   2.0000      -0.472380       -12.8541
  17   2.0000      -0.461390       -12.5551
  18   2.0000      -0.437018       -11.8919
  19   2.0000      -0.424405       -11.5487
  20   2.0000      -0.409097       -11.1321
  21   2.0000      -0.383943       -10.4476
  22   2.0000      -0.371326       -10.1043
  23   2.0000      -0.355547        -9.6749
  24   2.0000      -0.349233        -9.5031
  25   2.0000      -0.338163        -9.2019
  26   2.0000      -0.322663        -8.7801
  27   2.0000      -0.308653        -8.3989
  28   2.0000      -0.301211        -8.1964
  29   2.0000      -0.300573        -8.1790
  30   2.0000      -0.276692        -7.5292
  31   2.0000      -0.248968        -6.7748
  32   0.0000      -0.022673        -0.6170
  33   0.0000       0.079117         2.1529
  34   0.0000       0.098597         2.6830
  35   0.0000       0.115501         3.1429
  36   0.0000       0.129618         3.5271

MULLIKEN ATOMIC CHARGES
-----------------------
   0 C :   -0.518609
   1 C :   -0.218648
   2 C :   -0.372549
   3 C :    0.467528
   4 O :   -0.517949
   5 O :   -0.202249
   6 C :   -0.144413
   7 C :   -0.491519
   8 H :    0.159134
   9 H :    0.162403
  10 H :    0.159344
  11 H :    0.157562
  12 H :    0.157809
  13 H :    0.176602
  14 H :    0.177183
  15 H :    0.171480
  16 H :    0.173603
  17 H :    0.167902
  18 H :    0.170012
  19 H :    0.165374
Sum of atomic charges:    0.0000000

LOEWDIN ATOMIC CHARGES
----------------------
   0 C :   -0.424743
   1 C :   -0.284935
   2 C :   -0.227652
   3 C :    0.365199
   4 O :   -0.494655
   5 O :   -0.598796
   6 C :    0.031819
   7 C :   -0.393099
   8 H :    0.154864
   9 H :    0.156417
  10 H :    0.154855
  11 H :    0.161604
  12 H :    0.161404
  13 H :    0.182346
  14 H :    0.185378
  15 H :    0.189376
  16 H :    0.188801
  17 H :    0.162192
  18 H :    0.167730
  19 H :    0.161895

  Mayer bond orders larger than 0.100000
B(  0-C ,  1-C ) :   0.8868 B(  0-C ,  8-H ) :   0.9822 B(  0-C ,  9-H ) :   0.9685
B(  0-C , 10-H ) :   0.9821 B(  1-C ,  2-C ) :   0.9161 B(  1-C , 11-H ) :   0.9589
B(  1-C , 12-H ) :   0.9585 B(  2-C ,  3-C ) :   0.9545 B(  2-C , 13-H ) :   0.9770
B(  2-C , 14-H ) :   0.9702 B(  3-C ,  4-O ) :   1.7683 B(  3-C ,  5-O ) :   1.0566
B(  5-O ,  6-C ) :   0.8006 B(  6-C ,  7-C ) :   0.9367 B(  6-C , 15-H ) :   0.9627
B(  6-C , 16-H ) :   0.9514 B(  7-C , 17-H ) :   0.9689 B(  7-C , 18-H ) :   0.9605
B(  7-C , 19-H ) :   0.9697

Dispersion correction           -0.004959915
FINAL SINGLE POINT ENERGY      -386.240737113448

DIPOLE MOMENT
-------------

Method             : SCF
Type of density    : Electron Density
Multiplicity       :   1
Irrep              :   0
Energy             :  -386.2474301444059392 Eh
Relativity type    :
Basis              : AO
                                X                 Y                 Z
Electronic contribution:      3.243278567       2.186673186      -1.331799155
Nuclear contribution   :     -3.159101716      -3.059084931       2.094888909
                        -----------------------------------------
Total Dipole Moment    :      0.084176851      -0.872411745       0.763089754
                        -----------------------------------------
Magnitude (a.u.)       :      1.162107554
Magnitude (Debye)      :      2.953842657

Rotational constants in cm-1:             0.179231             0.030001             0.028169
Rotational constants in MHz :          5373.197907           899.414652           844.476691

                             ****ORCA TERMINATED NORMALLY****
TOTAL RUN TIME: 0 days 0 hours 0 minutes 36 seconds 861 msec
