                         Program Version 6.0.0  -   RELEASE  -
|  1> ! r2scan-3c def2/J RI DEFGRID2 scfconv6 printgap
|  2> %output
|  3>     printlevel normal
|  4> end
|  5> * xyz 0 1
|  6> C -3.2144762912 -1.0568038155 0.0496376285
|  7> C -2.7234837401 0.3471041517 0.3836597133
|  8> C -1.2120213051 0.4198972849 0.6002042277
|  9> C -0.4182681314 0.1287949761 -0.6830153114
| 10> C 1.0448882028 0.3317568213 -0.4042683999
| 11> O 1.657394991 1.3626571816 -0.5921302757
| 12> O 1.5996231049 -0.7561828192 0.1186587023
| 13> C 2.9796844873 -0.6858292056 0.4854491661
| 14> H -2.8343530609 -1.3860058043 -0.9133211103
| 15> H -2.8912453605 -1.763268998 0.8104748895
| 16> H -4.3005085362 -1.0720422455 0.0066341888
| 17> H -3.0068301727 1.0337326642 -0.4160560217
| 18> H -3.212306469 0.6849554189 1.2994933206
| 19> H -0.9176379845 -0.2969145735 1.3692534226
| 20> H -0.9493392372 1.420776463 0.9510148221
| 21> H -0.7241752269 0.8169856585 -1.4703958005
| 22> H -0.5766068921 -0.9019700052 -0.9937867773
| 23> H 3.2408779389 -1.6793422906 0.8355770137
| 24> H 3.1187012071 0.0566118781 1.2720783441
| 25> H 3.5810222189 -0.4025573467 -0.3791948235
| 26> *
| 27>
| 28>                          ****END OF INPUT****

CARTESIAN COORDINATES (ANGSTROEM)
---------------------------------
  C     -3.214476   -1.056804    0.049638
  C     -2.723484    0.347104    0.383660
  C     -1.212021    0.419897    0.600204
  C     -0.418268    0.128795   -0.683015
  C      1.044888    0.331757   -0.404268
  O      1.657395    1.362657   -0.592130
  O      1.599623   -0.756183    0.118659
  C      2.979684   -0.685829    0.485449
  H     -2.834353   -1.386006   -0.913321
  H     -2.891245   -1.763269    0.810475
  H     -4.300509   -1.072042    0.006634
  H     -3.006830    1.033733   -0.416056
  H     -3.212306    0.684955    1.299493
  H     -0.917638   -0.296915    1.369253
  H     -0.949339    1.420776    0.951015
  H     -0.724175    0.816986   -1.470396
  H     -0.576607   -0.901970   -0.993787
  H      3.240878   -1.679342    0.835577
  H      3.118701    0.056612    1.272078
  H      3.581022   -0.402557   -0.379195

 Total Charge           Charge          ....    0
 Multiplicity           Mult            ....    1
 Number of Electrons    NEL             ....   64
 Basis Dimension        Dim             ....  222

ORBITAL ENERGIES
----------------

  NO   OCC          E(Eh)            E(eV)
   0   2.0000     -18.998585      -516.9778
   1   2.0000     -18.927713      -515.0492
   2   2.0000     -10.151075      -276.2248
   3   2.0000     -10.086429      -274.4657
   4   2.0000     -10.041178      -273.2343
   5   2.0000     -10.037493      -273.1341
   6   2.0000     -10.031890      -272.9816
   7   2.0000     -10.020982      -272.6848
   8   2.0000      -1.072630       -29.1877
   9   2.0000      -0.974493       -26.5173
  10   2.0000      -0.781354       -21.2617
  11   2.0000      -0.728248       -19.8166
  12   2.0000      -0.684062       -18.6143
  13   2.0000      -0.625676       -17.0255
  14   2.0000      -0.550332       -14.9753
  15   2.0000      -0.533884       -14.5277
  16   2.0000      -0.472259       -12.8508
  17   2.0000      -0.454646       -12.3715
  18   2.0000      -0.448262       -12.1978
  19   2.0000      -0.427726       -11.6390
  20   2.0000      -0.411480       -11.1969
  21   2.0000      -0.395565       -10.7639
  22   2.0000      -0.377565       -10.2741
  23   2.0000      -0.373009       -10.1501
  24   2.0000      -0.351267        -9.5585
  25   2.0000      -0.336083        -9.1453
  26   2.0000      -0.324439        -8.8284
  27   2.0000      -0.306453        -8.3390
  28   2.0000      -0.306119        -8.3299
  29   2.0000      -0.298279        -8.1166
  30   2.0000      -0.272850        -7.4246
  31   2.0000      -0.233445        -6.3524
  32   0.0000      -0.014561        -0.3962
  33   0.0000       0.065001         1.7688
  34   0.0000       0.093265         2.5379
  35   0.0000       0.095269         2.5924
  36   0.0000       0.115669         3.1475

MULLIKEN ATOMIC CHARGES
-----------------------
   0 C :   -0.493252
   1 C :   -0.208552
   2 C :   -0.267335
   3 C :   -0.343301
   4 C :    0.393350
   5 O :   -0.420138
   6 O :   -0.192851
   7 C :   -0.292506
   8 H :    0.146996
   9 H :    0.147362
  10 H :    0.149178
  11 H :    0.135703
  12 H :    0.146345
  13 H :    0.149695
  14 H :    0.154618
  15 H :    0.164137
  16 H :    0.158112
  17 H :    0.149938
  18 H :    0.159097
  19 H :    0.163404
Sum of atomic charges:   -0.0000000

LOEWDIN ATOMIC CHARGES
----------------------
   0 C :   -0.425205
   1 C :   -0.313957
   2 C :   -0.282194
   3 C :   -0.227959
   4 C :    0.350556
   5 O :   -0.422755
   6 O :   -0.604714
   7 C :   -0.044413
   8 H :    0.148908
   9 H :    0.151344
  10 H :    0.152287
  11 H :    0.153215
  12 H :    0.154782
  13 H :    0.160958
  14 H :    0.164672
  15 H :    0.177878
  16 H :    0.177347
  17 H :    0.175832
  18 H :    0.175525
  19 H :    0.177891

  Mayer bond orders larger than 0.100000
B(  0-C ,  1-C ) :   0.8904 B(  0-C ,  8-H ) :   0.9806 B(  0-C ,  9-H ) :   0.9821
B(  0-C , 10-H ) :   0.9694 B(  1-C ,  2-C ) :   0.8947 B(  1-C , 11-H ) :   0.9812
B(  1-C , 12-H ) :   0.9694 B(  2-C ,  3-C ) :   0.9108 B(  2-C , 13-H ) :   0.9741
B(  2-C , 14-H ) :   0.9595 B(  3-C ,  4-C ) :   0.9739 B(  3-C , 15-H ) :   0.9754
B(  3-C , 16-H ) :   0.9667 B(  4-C ,  5-O ) :   1.8359 B(  4-C ,  6-O ) :   1.0384
B(  6-O ,  7-C ) :   0.8521 B(  7-C , 17-H ) :   0.9695 B(  7-C , 18-H ) :   0.9612
B(  7-C , 19-H ) :   0.9639

Dispersion correction           -0.005061120
FINAL SINGLE POINT ENERGY      -386.229935731896

DIPOLE MOMENT
-------------

Method             : SCF
Type of density    : Electron Density
Multiplicity       :   1
Irrep              :   0
Energy             :  -386.2368097126735051 Eh
Relativity type    :
Basis              : AO
                                X                 Y                 Z
Electronic contribution:      8.572548240       2.544256326      -1.886798581
Nuclear contribution   :     -8.838396108      -3.264307468       2.218096293
                        -----------------------------------------
Total Dipole Moment    :     -0.265847868      -0.720051141       0.331297713
                        -----------------------------------------
Magnitude (a.u.)       :      0.836006525
Magnitude (Debye)      :      2.124959712

Rotational constants in cm-1:             0.153190             0.030228             0.027550
Rotational constants in MHz :          4592.529558           906.224008           825.929787

                             ****ORCA TERMINATED NORMALLY****
TOTAL RUN TIME: 0 days 0 hours 0 minutes 25 seconds 434 msec
