                         Program Version 6.0.0  -   RELEASE  -
|  1> ! r2scan-3c def2/J RI DEFGRID2 scfconv6 printgap
|  2> %output
|  3>     printlevel normal
|  4> end
|  5> %cpcm
|  6>     smd true
|  7>     smdsolvent "water"
|  8> end
|  9> * xyz 0 1
| 10> C -3.2144762912 -1.0568038155 0.0496376285
| 11> C -2.7234837401 0.3471041517 0.3836597133
| 12> C -1.2120213051 0.4198972849 0.6002042277
| 13> C -0.4182681314 0.1287949761 -0.6830153114
| 14> C 1.0448882028 0.3317568213 -0.4042683999
| 15> O 1.657394991 1.3626571816 -0.5921302757
| 16> O 1.5996231049 -0.7561828192 0.1186587023
| 17> C 2.9796844873 -0.6858292056 0.4854491661
| 18> H -2.8343530609 -1.3860058043 -0.9133211103
| 19> H -2.8912453605 -1.763268998 0.8104748895
| 20> H -4.3005085362 -1.0720422455 0.0066341888
| 21> H -3.0068301727 1.0337326642 -0.4160560217
| 22> H -3.212306469 0.6849554189 1.2994933206
| 23> H -0.9176379845 -0.2969145735 1.3692534226
| 24> H -0.9493392372 1.420776463 0.9510148221
| 25> H -0.7241752269 0.8169856585 -1.4703958005
| 26> H -0.5766068921 -0.9019700052 -0.9937867773
| 27> H 3.2408779389 -1.6793422906 0.8355770137
| 28> H 3.1187012071 0.0566118781 1.2720783441
| 29> H 3.5810222189 -0.4025573467 -0.3791948235
| 30> *
| 31>
| 32>                          ****END OF INPUT****

CARTESIAN COORDINATES (ANGSTROEM)
---------------------------------
  C     -3.214476   -1.056804    0.049638
  C     -2.723484    0.347104    0.383660
  C     -1.212021    0.419897    0.600204
  C     -0.418268    0.128795   -0.683015
  C      1.044888    0.331757   -0.404268
  O      1.657395    1.362657   -0.592130
  O      1.599623   -0.756183    0.118659
  C      2.979684   -0.685829    0.485449
  H     -2.834353   -1.386006   -0.913321
  H     -2.891245   -1.763269    0.810475
  H     -4.300509   -1.072042    0.006634
  H     -3.006830    1.033733   -0.416056
  H     -3.212306    0.684955    1.299493
  H     -0.917638   -0.296915    1.369253
  H     -0.949339    1.420776    0.951015
  H     -0.724175    0.816986   -1.470396
  H     -0.576607   -0.901970   -0.993787
  H      3.240878   -1.679342    0.835577
  H      3.118701    0.056612    1.272078
  H      3.581022   -0.402557   -0.379195

 Total Charge           Charge          ....    0
 Multiplicity           Mult            ....    1
 Number of Electrons    NEL             ....   64
 Basis Dimension        Dim             ....  222

ORBITAL ENERGIES
----------------

  NO   OCC          E(Eh)            E(eV)
   0   2.0000     -19.004296      -517.1332
   1   2.0000     -18.944124      -515.4958
   2   2.0000     -10.161788      -276.5163
   3   2.0000     -10.076534      -274.1964
   4   2.0000     -10.035034      -273.0672
   5   2.0000     -10.028453      -272.8881
   6   2.0000     -10.020069      -272.6599
   7   2.0000     -10.008409      -272.3427
   8   2.0000      -1.079961       -29.3872
   9   2.0000      -0.988745       -26.9051
  10   2.0000      -0.773641       -21.0518
  11   2.0000      -0.721950       -19.6452
  12   2.0000      -0.676704       -18.4141
  13   2.0000      -0.616765       -16.7830
  14   2.0000      -0.541813       -14.7435
  15   2.0000      -0.530898       -14.4465
  16   2.0000      -0.472092       -12.8463
  17   2.0000      -0.458175       -12.4676
  18   2.0000      -0.450895       -12.2695
  19   2.0000      -0.423753       -11.5309
  20   2.0000      -0.407438       -11.0870
  21   2.0000      -0.387434       -10.5426
  22   2.0000      -0.372061       -10.1243
  23   2.0000      -0.368601       -10.0301
  24   2.0000      -0.345384        -9.3984
  25   2.0000      -0.328374        -8.9355
  26   2.0000      -0.325718        -8.8632
  27   2.0000      -0.298647        -8.1266
  28   2.0000      -0.296015        -8.0550
  29   2.0000      -0.289673        -7.8824
  30   2.0000      -0.279380        -7.6023
  31   2.0000      -0.249914        -6.8005
  32   0.0000      -0.023059        -0.6275
  33   0.0000       0.069823         1.9000
  34   0.0000       0.102886         2.7997
  35   0.0000       0.105146         2.8612
  36   0.0000       0.126634         3.4459

MULLIKEN ATOMIC CHARGES
-----------------------
   0 C :   -0.530605
   1 C :   -0.225625
   2 C :   -0.260562
   3 C :   -0.372853
   4 C :    0.439984
   5 O :   -0.507525
   6 O :   -0.206771
   7 C :   -0.327388
   8 H :    0.160095
   9 H :    0.157585
  10 H :    0.158559
  11 H :    0.146496
  12 H :    0.156502
  13 H :    0.160244
  14 H :    0.158169
  15 H :    0.178809
  16 H :    0.180697
  17 H :    0.178333
  18 H :    0.178148
  19 H :    0.177708
Sum of atomic charges:   -0.0000000

LOEWDIN ATOMIC CHARGES
----------------------
   0 C :   -0.432730
   1 C :   -0.313765
   2 C :   -0.280831
   3 C :   -0.226010
   4 C :    0.359928
   5 O :   -0.485775
   6 O :   -0.606013
   7 C :   -0.042049
   8 H :    0.152789
   9 H :    0.153881
  10 H :    0.154145
  11 H :    0.156279
  12 H :    0.157797
  13 H :    0.164411
  14 H :    0.165329
  15 H :    0.183222
  16 H :    0.186757
  17 H :    0.188251
  18 H :    0.181795
  19 H :    0.182590

  Mayer bond orders larger than 0.100000
B(  0-C ,  1-C ) :   0.8856 B(  0-C ,  8-H ) :   0.9768 B(  0-C ,  9-H ) :   0.9795
B(  0-C , 10-H ) :   0.9677 B(  1-C ,  2-C ) :   0.8907 B(  1-C , 11-H ) :   0.9819
B(  1-C , 12-H ) :   0.9692 B(  2-C ,  3-C ) :   0.9006 B(  2-C , 13-H ) :   0.9696
B(  2-C , 14-H ) :   0.9585 B(  3-C ,  4-C ) :   0.9682 B(  3-C , 15-H ) :   0.9754
B(  3-C , 16-H ) :   0.9575 B(  4-C ,  5-O ) :   1.7672 B(  4-C ,  6-O ) :   1.0652
B(  6-O ,  7-C ) :   0.8321 B(  7-C , 17-H ) :   0.9595 B(  7-C , 18-H ) :   0.9557
B(  7-C , 19-H ) :   0.9584

Dispersion correction           -0.005061120
FINAL SINGLE POINT ENERGY      -386.235121515067

DIPOLE MOMENT
-------------

Method             : SCF
Type of density    : Electron Density
Multiplicity       :   1
Irrep              :   0
Energy             :  -386.2419954958442645 Eh
Relativity type    :
Basis              : AO
                                X                 Y                 Z
Electronic contribution:      8.466388626       2.242680649      -1.792336125
Nuclear contribution   :     -8.838396108      -3.264307468       2.218096293
                        -----------------------------------------
Total Dipole Moment    :     -0.372007482      -1.021626819       0.425760168
                        -----------------------------------------
Magnitude (a.u.)       :      1.167639775
Magnitude (Debye)      :      2.967904445

Rotational constants in cm-1:             0.153190             0.030228             0.027550
Rotational constants in MHz :          4592.529558           906.224008           825.929787

                             ****ORCA TERMINATED NORMALLY****
TOTAL RUN TIME: 0 days 0 hours 0 minutes 33 seconds 523 msec
