                         Program Version 6.0.0  -   RELEASE  -
|  1> ! pbe def2-sv(p) def2/J RI DEFGRID1 loosescf d4 GCP(DFT/SV(P)) printgap
|  2> %output
|  3>     printlevel normal
|  4> end
|  5> * xyz 0 1
|  6> C -3.3283640603 -1.0988697964 0.2640515634
|  7> C -1.9455588053 -0.7413128257 -0.2652616693
|  8> C -1.3521591739 0.4534276475 0.4964411068
|  9> C -0.0011212679 0.7874024703 -0.0751057058
| 10> O 0.2105179062 1.6528657172 -0.9010402589
| 11> O 0.9423370513 -0.0104042388 0.402112753
| 12> C 2.2816109735 0.1400077058 -0.0993884111
| 13> C 3.0504424156 -1.1322063558 0.2025557291
| 14> H -4.0092552637 -0.2594775056 0.1492543423
| 15> H -3.730442619 -1.9466337726 -0.2837525435
| 16> H -3.2764260072 -1.3603250661 1.3176119246
| 17> H -2.0090297251 -0.4904854874 -1.3262589436
| 18> H -1.2762328349 -1.5965710414 -0.1581653768
| 19> H -1.2394259316 0.1946479664 1.5485434316
| 20> H -2.0008835863 1.3221882776 0.3892115079
| 21> H 2.2291738836 0.3436695294 -1.1739121451
| 22> H 2.7322559487 1.007191707 0.3938246981
| 23> H 3.0531580609 -1.3176403049 1.2724368206
| 24> H 2.588622784 -1.9778222581 -0.2986646872
| 25> H 4.0721871075 -1.024880811 -0.1461592297
| 26> *
| 27>
| 28>                          ****END OF INPUT****

CARTESIAN COORDINATES (ANGSTROEM)
---------------------------------
  C     -3.328364   -1.098870    0.264052
  C     -1.945559   -0.741313   -0.265262
  C     -1.352159    0.453428    0.496441
  C     -0.001121    0.787402   -0.075106
  O      0.210518    1.652866   -0.901040
  O      0.942337   -0.010404    0.402113
  C      2.281611    0.140008   -0.099388
  C      3.050442   -1.132206    0.202556
  H     -4.009255   -0.259478    0.149254
  H     -3.730443   -1.946634   -0.283753
  H     -3.276426   -1.360325    1.317612
  H     -2.009030   -0.490485   -1.326259
  H     -1.276233   -1.596571   -0.158165
  H     -1.239426    0.194648    1.548543
  H     -2.000884    1.322188    0.389212
  H      2.229174    0.343670   -1.173912
  H      2.732256    1.007192    0.393825
  H      3.053158   -1.317640    1.272437
  H      2.588623   -1.977822   -0.298665
  H      4.072187   -1.024881   -0.146159

 Total Charge           Charge          ....    0
 Multiplicity           Mult            ....    1
 Number of Electrons    NEL             ....   64
 Basis Dimension        Dim             ....  136

ORBITAL ENERGIES
----------------

  NO   OCC          E(Eh)            E(eV)
   0   2.0000     -18.796246      -511.4719
   1   2.0000     -18.727633      -509.6048
   2   2.0000     -10.001870      -272.1647
   3   2.0000      -9.945919      -270.6422
   4   2.0000      -9.895880      -269.2806
   5   2.0000      -9.895526      -269.2710
   6   2.0000      -9.889364      -269.1033
   7   2.0000      -9.880640      -268.8659
   8   2.0000      -1.002883       -27.2898
   9   2.0000      -0.904537       -24.6137
  10   2.0000      -0.730150       -19.8684
  11   2.0000      -0.699757       -19.0413
  12   2.0000      -0.639698       -17.4071
  13   2.0000      -0.579959       -15.7815
  14   2.0000      -0.534941       -14.5565
  15   2.0000      -0.506358       -13.7787
  16   2.0000      -0.443399       -12.0655
  17   2.0000      -0.442281       -12.0351
  18   2.0000      -0.426127       -11.5955
  19   2.0000      -0.396625       -10.7927
  20   2.0000      -0.390047       -10.6137
  21   2.0000      -0.362585        -9.8664
  22   2.0000      -0.361379        -9.8336
  23   2.0000      -0.354010        -9.6331
  24   2.0000      -0.344569        -9.3762
  25   2.0000      -0.321262        -8.7420
  26   2.0000      -0.318731        -8.6731
  27   2.0000      -0.301895        -8.2150
  28   2.0000      -0.298527        -8.1233
  29   2.0000      -0.290374        -7.9015
  30   2.0000      -0.253588        -6.9005
  31   2.0000      -0.211624        -5.7586
  32   0.0000      -0.016500        -0.4490
  33   0.0000       0.036910         1.0044
  34   0.0000       0.048591         1.3222
  35   0.0000       0.074942         2.0393
  36   0.0000       0.078188         2.1276

MULLIKEN ATOMIC CHARGES
-----------------------
   0 C :   -0.242105
   1 C :   -0.242889
   2 C :   -0.112693
   3 C :    0.110270
   4 O :   -0.213838
   5 O :   -0.245918
   6 C :   -0.027151
   7 C :   -0.275039
   8 H :    0.101342
   9 H :    0.106886
  10 H :    0.098797
  11 H :    0.102288
  12 H :    0.098070
  13 H :    0.094388
  14 H :    0.097414
  15 H :    0.109178
  16 H :    0.102979
  17 H :    0.113762
  18 H :    0.113448
  19 H :    0.110811
Sum of atomic charges:   -0.0000000

LOEWDIN ATOMIC CHARGES
----------------------
   0 C :   -0.339054
   1 C :   -0.225985
   2 C :   -0.241483
   3 C :    0.034477
   4 O :   -0.172885
   5 O :   -0.072013
   6 C :   -0.109109
   7 C :   -0.350936
   8 H :    0.119312
   9 H :    0.121747
  10 H :    0.118265
  11 H :    0.121723
  12 H :    0.118188
  13 H :    0.130225
  14 H :    0.133037
  15 H :    0.117377
  16 H :    0.115653
  17 H :    0.125919
  18 H :    0.125560
  19 H :    0.129982

  Mayer bond orders larger than 0.100000
B(  0-C ,  1-C ) :   1.1579 B(  0-C ,  8-H ) :   0.9531 B(  0-C ,  9-H ) :   0.9516
B(  0-C , 10-H ) :   0.9534 B(  1-C ,  2-C ) :   1.1275 B(  1-C , 11-H ) :   0.9271
B(  1-C , 12-H ) :   0.9263 B(  2-C ,  3-C ) :   1.0314 B(  2-C , 13-H ) :   0.8991
B(  2-C , 14-H ) :   0.9048 B(  3-C ,  4-O ) :   2.0569 B(  3-C ,  5-O ) :   1.1989
B(  5-O ,  6-C ) :   0.9127 B(  6-C ,  7-C ) :   1.1525 B(  6-C , 15-H ) :   0.9223
B(  6-C , 16-H ) :   0.9366 B(  7-C , 17-H ) :   0.9485 B(  7-C , 18-H ) :   0.9518
B(  7-C , 19-H ) :   0.9446

Dispersion correction           -0.014398897
FINAL SINGLE POINT ENERGY      -385.457095757508

DIPOLE MOMENT
-------------

Method             : SCF
Type of density    : Electron Density
Multiplicity       :   1
Irrep              :   0
Energy             :  -385.5320310763813723 Eh
Relativity type    :
Basis              : AO
                                X                 Y                 Z
Electronic contribution:      2.850024313       5.951734027      -1.177305802
Nuclear contribution   :     -2.671970778      -6.642388056       1.572446207
                        -----------------------------------------
Total Dipole Moment    :      0.178053534      -0.690654029       0.395140406
                        -----------------------------------------
Magnitude (a.u.)       :      0.815378433
Magnitude (Debye)      :      2.072527270

Rotational constants in cm-1:             0.122837             0.032955             0.027902
Rotational constants in MHz :          3682.558941           987.972995           836.495449

                             ****ORCA TERMINATED NORMALLY****
TOTAL RUN TIME: 0 days 0 hours 0 minutes 11 seconds 191 msec
