                         Program Version 6.0.0  -   RELEASE  -
|  1> ! r2scan-3c def2/J RI DEFGRID2 scfconv6 printgap
|  2> %output
|  3>     printlevel normal
|  4> end
|  5> * xyz 0 1
|  6> C -2.7471808647 0.4175779307 1.0712786944
|  7> C -2.5212682089 -0.1055299681 -0.3421659052
|  8> C -1.2157007562 -0.8962895283 -0.4472231139
|  9> C -0.0128870184 -0.0017359568 -0.2866576489
| 10> O 0.1096776675 1.0972575783 -0.7854109183
| 11> O 0.9142996266 -0.5703528795 0.4761355169
| 12> C 2.1507131181 0.1305297878 0.6913538555
| 13> C 3.144498554 -0.1540693644 -0.4243744552
| 14> H -3.6846053294 0.9642093151 1.1279283027
| 15> H -2.7811524204 -0.4039725435 1.7829130724
| 16> H -1.9411970739 1.090296143 1.3586666891
| 17> H -2.477446725 0.7332250929 -1.0393769569
| 18> H -3.3507533042 -0.7512766795 -0.6310679871
| 19> H -1.141812514 -1.3508079781 -1.4375335971
| 20> H -1.164938702 -1.6835987385 0.3042020245
| 21> H 1.937886722 1.2021897156 0.7533105978
| 22> H 2.5131220011 -0.2403334462 1.6504977123
| 23> H 3.3044849046 -1.2247131423 -0.518642535
| 24> H 2.7657154358 0.2325684584 -1.3679527297
| 25> H 4.0880646713 0.3316590241 -0.198244314
| 26> *
| 27>
| 28>                          ****END OF INPUT****

CARTESIAN COORDINATES (ANGSTROEM)
---------------------------------
  C     -2.747181    0.417578    1.071279
  C     -2.521268   -0.105530   -0.342166
  C     -1.215701   -0.896290   -0.447223
  C     -0.012887   -0.001736   -0.286658
  O      0.109678    1.097258   -0.785411
  O      0.914300   -0.570353    0.476136
  C      2.150713    0.130530    0.691354
  C      3.144499   -0.154069   -0.424374
  H     -3.684605    0.964209    1.127928
  H     -2.781152   -0.403973    1.782913
  H     -1.941197    1.090296    1.358667
  H     -2.477447    0.733225   -1.039377
  H     -3.350753   -0.751277   -0.631068
  H     -1.141813   -1.350808   -1.437534
  H     -1.164939   -1.683599    0.304202
  H      1.937887    1.202190    0.753311
  H      2.513122   -0.240333    1.650498
  H      3.304485   -1.224713   -0.518643
  H      2.765715    0.232568   -1.367953
  H      4.088065    0.331659   -0.198244

 Total Charge           Charge          ....    0
 Multiplicity           Mult            ....    1
 Number of Electrons    NEL             ....   64
 Basis Dimension        Dim             ....  222

ORBITAL ENERGIES
----------------

  NO   OCC          E(Eh)            E(eV)
   0   2.0000     -18.996348      -516.9169
   1   2.0000     -18.928134      -515.0607
   2   2.0000     -10.151750      -276.2432
   3   2.0000     -10.090627      -274.5799
   4   2.0000     -10.040528      -273.2167
   5   2.0000     -10.031464      -272.9700
   6   2.0000     -10.028638      -272.8931
   7   2.0000     -10.017440      -272.5884
   8   2.0000      -1.070834       -29.1389
   9   2.0000      -0.975772       -26.5521
  10   2.0000      -0.771753       -21.0005
  11   2.0000      -0.739085       -20.1115
  12   2.0000      -0.677490       -18.4354
  13   2.0000      -0.624004       -16.9800
  14   2.0000      -0.564536       -15.3618
  15   2.0000      -0.518306       -14.1038
  16   2.0000      -0.473821       -12.8933
  17   2.0000      -0.455657       -12.3991
  18   2.0000      -0.441108       -12.0032
  19   2.0000      -0.418713       -11.3937
  20   2.0000      -0.410513       -11.1706
  21   2.0000      -0.389425       -10.5968
  22   2.0000      -0.377382       -10.2691
  23   2.0000      -0.364531        -9.9194
  24   2.0000      -0.350376        -9.5342
  25   2.0000      -0.343274        -9.3410
  26   2.0000      -0.315843        -8.5945
  27   2.0000      -0.309358        -8.4181
  28   2.0000      -0.307267        -8.3611
  29   2.0000      -0.303018        -8.2455
  30   2.0000      -0.271427        -7.3859
  31   2.0000      -0.236762        -6.4426
  32   0.0000      -0.014866        -0.4045
  33   0.0000       0.075225         2.0470
  34   0.0000       0.092662         2.5215
  35   0.0000       0.108822         2.9612
  36   0.0000       0.119519         3.2523

MULLIKEN ATOMIC CHARGES
-----------------------
   0 C :   -0.496755
   1 C :   -0.207474
   2 C :   -0.300563
   3 C :    0.347732
   4 O :   -0.431816
   5 O :   -0.174491
   6 C :   -0.137270
   7 C :   -0.470266
   8 H :    0.147947
   9 H :    0.143892
  10 H :    0.158374
  11 H :    0.159608
  12 H :    0.142269
  13 H :    0.166713
  14 H :    0.166072
  15 H :    0.167865
  16 H :    0.147689
  17 H :    0.151724
  18 H :    0.171894
  19 H :    0.146856
Sum of atomic charges:    0.0000000

LOEWDIN ATOMIC CHARGES
----------------------
   0 C :   -0.416854
   1 C :   -0.296067
   2 C :   -0.232197
   3 C :    0.357092
   4 O :   -0.440602
   5 O :   -0.595834
   6 C :    0.026437
   7 C :   -0.390356
   8 H :    0.152800
   9 H :    0.149484
  10 H :    0.156850
  11 H :    0.168963
  12 H :    0.152478
  13 H :    0.182607
  14 H :    0.178203
  15 H :    0.188119
  16 H :    0.177696
  17 H :    0.157079
  18 H :    0.165007
  19 H :    0.159094

  Mayer bond orders larger than 0.100000
B(  0-C ,  1-C ) :   0.9082 B(  0-C ,  8-H ) :   0.9691 B(  0-C ,  9-H ) :   0.9824
B(  0-C , 10-H ) :   0.9742 B(  1-C ,  2-C ) :   0.8949 B(  1-C , 11-H ) :   0.9629
B(  1-C , 12-H ) :   0.9648 B(  2-C ,  3-C ) :   0.9495 B(  2-C , 13-H ) :   0.9259
B(  2-C , 14-H ) :   1.0019 B(  3-C ,  4-O ) :   1.8341 B(  3-C ,  5-O ) :   1.0541
B(  5-O ,  6-C ) :   0.8190 B(  6-C ,  7-C ) :   0.9380 B(  6-C , 15-H ) :   0.9671
B(  6-C , 16-H ) :   0.9610 B(  7-C , 17-H ) :   0.9735 B(  7-C , 18-H ) :   0.9717
B(  7-C , 19-H ) :   0.9653

Dispersion correction           -0.005106204
FINAL SINGLE POINT ENERGY      -386.236908403574

DIPOLE MOMENT
-------------

Method             : SCF
Type of density    : Electron Density
Multiplicity       :   1
Irrep              :   0
Energy             :  -386.2435519695301878 Eh
Relativity type    :
Basis              : AO
                                X                 Y                 Z
Electronic contribution:      2.015272293       0.443584278      -1.342415158
Nuclear contribution   :     -1.797947590      -1.024690813       1.669760382
                        -----------------------------------------
Total Dipole Moment    :      0.217324703      -0.581106535       0.327345224
                        -----------------------------------------
Magnitude (a.u.)       :      0.701476818
Magnitude (Debye)      :      1.783012374

Rotational constants in cm-1:             0.164023             0.032920             0.032414
Rotational constants in MHz :          4917.280670           986.924877           971.742499

                             ****ORCA TERMINATED NORMALLY****
TOTAL RUN TIME: 0 days 0 hours 0 minutes 33 seconds 205 msec
