                         Program Version 6.0.0  -   RELEASE  -
|  1> ! r2scan-3c def2/J RI DEFGRID2 scfconv6 printgap
|  2> %output
|  3>     printlevel normal
|  4> end
|  5> %cpcm
|  6>     smd true
|  7>     smdsolvent "water"
|  8> end
|  9> * xyz 0 1
| 10> C -2.7471808647 0.4175779307 1.0712786944
| 11> C -2.5212682089 -0.1055299681 -0.3421659052
| 12> C -1.2157007562 -0.8962895283 -0.4472231139
| 13> C -0.0128870184 -0.0017359568 -0.2866576489
| 14> O 0.1096776675 1.0972575783 -0.7854109183
| 15> O 0.9142996266 -0.5703528795 0.4761355169
| 16> C 2.1507131181 0.1305297878 0.6913538555
| 17> C 3.144498554 -0.1540693644 -0.4243744552
| 18> H -3.6846053294 0.9642093151 1.1279283027
| 19> H -2.7811524204 -0.4039725435 1.7829130724
| 20> H -1.9411970739 1.090296143 1.3586666891
| 21> H -2.477446725 0.7332250929 -1.0393769569
| 22> H -3.3507533042 -0.7512766795 -0.6310679871
| 23> H -1.141812514 -1.3508079781 -1.4375335971
| 24> H -1.164938702 -1.6835987385 0.3042020245
| 25> H 1.937886722 1.2021897156 0.7533105978
| 26> H 2.5131220011 -0.2403334462 1.6504977123
| 27> H 3.3044849046 -1.2247131423 -0.518642535
| 28> H 2.7657154358 0.2325684584 -1.3679527297
| 29> H 4.0880646713 0.3316590241 -0.198244314
| 30> *
| 31>
| 32>                          ****END OF INPUT****

CARTESIAN COORDINATES (ANGSTROEM)
---------------------------------
  C     -2.747181    0.417578    1.071279
  C     -2.521268   -0.105530   -0.342166
  C     -1.215701   -0.896290   -0.447223
  C     -0.012887   -0.001736   -0.286658
  O      0.109678    1.097258   -0.785411
  O      0.914300   -0.570353    0.476136
  C      2.150713    0.130530    0.691354
  C      3.144499   -0.154069   -0.424374
  H     -3.684605    0.964209    1.127928
  H     -2.781152   -0.403973    1.782913
  H     -1.941197    1.090296    1.358667
  H     -2.477447    0.733225   -1.039377
  H     -3.350753   -0.751277   -0.631068
  H     -1.141813   -1.350808   -1.437534
  H     -1.164939   -1.683599    0.304202
  H      1.937887    1.202190    0.753311
  H      2.513122   -0.240333    1.650498
  H      3.304485   -1.224713   -0.518643
  H      2.765715    0.232568   -1.367953
  H      4.088065    0.331659   -0.198244

 Total Charge           Charge          ....    0
 Multiplicity           Mult            ....    1
 Number of Electrons    NEL             ....   64
 Basis Dimension        Dim             ....  222

ORBITAL ENERGIES
----------------

  NO   OCC          E(Eh)            E(eV)
   0   2.0000     -19.002220      -517.0767
   1   2.0000     -18.943405      -515.4763
   2   2.0000     -10.162187      -276.5272
   3   2.0000     -10.082924      -274.3703
   4   2.0000     -10.035060      -273.0679
   5   2.0000     -10.026462      -272.8339
   6   2.0000     -10.018237      -272.6101
   7   2.0000     -10.010930      -272.4113
   8   2.0000      -1.078264       -29.3411
   9   2.0000      -0.988960       -26.9110
  10   2.0000      -0.768157       -20.9026
  11   2.0000      -0.732860       -19.9421
  12   2.0000      -0.672602       -18.3024
  13   2.0000      -0.619147       -16.8479
  14   2.0000      -0.559130       -15.2147
  15   2.0000      -0.517213       -14.0741
  16   2.0000      -0.474243       -12.9048
  17   2.0000      -0.461145       -12.5484
  18   2.0000      -0.442785       -12.0488
  19   2.0000      -0.421380       -11.4663
  20   2.0000      -0.405620       -11.0375
  21   2.0000      -0.385463       -10.4890
  22   2.0000      -0.371103       -10.0982
  23   2.0000      -0.360203        -9.8016
  24   2.0000      -0.349524        -9.5110
  25   2.0000      -0.339817        -9.2469
  26   2.0000      -0.309940        -8.4339
  27   2.0000      -0.305117        -8.3026
  28   2.0000      -0.302392        -8.2285
  29   2.0000      -0.301143        -8.1945
  30   2.0000      -0.278569        -7.5803
  31   2.0000      -0.252363        -6.8671
  32   0.0000      -0.022653        -0.6164
  33   0.0000       0.077248         2.1020
  34   0.0000       0.099466         2.7066
  35   0.0000       0.118130         3.2145
  36   0.0000       0.127356         3.4655

MULLIKEN ATOMIC CHARGES
-----------------------
   0 C :   -0.528608
   1 C :   -0.221818
   2 C :   -0.313341
   3 C :    0.387111
   4 O :   -0.512996
   5 O :   -0.196626
   6 C :   -0.142437
   7 C :   -0.495499
   8 H :    0.160718
   9 H :    0.160339
  10 H :    0.161037
  11 H :    0.151907
  12 H :    0.161725
  13 H :    0.198097
  14 H :    0.181491
  15 H :    0.171574
  16 H :    0.173385
  17 H :    0.165519
  18 H :    0.168254
  19 H :    0.170171
Sum of atomic charges:    0.0000000

LOEWDIN ATOMIC CHARGES
----------------------
   0 C :   -0.423822
   1 C :   -0.295941
   2 C :   -0.229034
   3 C :    0.367092
   4 O :   -0.498356
   5 O :   -0.599409
   6 C :    0.031114
   7 C :   -0.393163
   8 H :    0.155857
   9 H :    0.155262
  10 H :    0.156052
  11 H :    0.164139
  12 H :    0.160087
  13 H :    0.194089
  14 H :    0.185760
  15 H :    0.189444
  16 H :    0.188915
  17 H :    0.161925
  18 H :    0.162306
  19 H :    0.167681

  Mayer bond orders larger than 0.100000
B(  0-C ,  1-C ) :   0.9052 B(  0-C ,  8-H ) :   0.9666 B(  0-C ,  9-H ) :   0.9781
B(  0-C , 10-H ) :   0.9723 B(  1-C ,  2-C ) :   0.8795 B(  1-C , 11-H ) :   0.9690
B(  1-C , 12-H ) :   0.9606 B(  2-C ,  3-C ) :   0.9536 B(  2-C , 13-H ) :   0.9176
B(  2-C , 14-H ) :   0.9913 B(  3-C ,  4-O ) :   1.7686 B(  3-C ,  5-O ) :   1.0756
B(  5-O ,  6-C ) :   0.8013 B(  6-C ,  7-C ) :   0.9368 B(  6-C , 15-H ) :   0.9631
B(  6-C , 16-H ) :   0.9518 B(  7-C , 17-H ) :   0.9696 B(  7-C , 18-H ) :   0.9694
B(  7-C , 19-H ) :   0.9603

Dispersion correction           -0.005106204
FINAL SINGLE POINT ENERGY      -386.241641044019

DIPOLE MOMENT
-------------

Method             : SCF
Type of density    : Electron Density
Multiplicity       :   1
Irrep              :   0
Energy             :  -386.2482846099755420 Eh
Relativity type    :
Basis              : AO
                                X                 Y                 Z
Electronic contribution:      2.070937889       0.119085818      -1.173060407
Nuclear contribution   :     -1.797947590      -1.024690813       1.669760382
                        -----------------------------------------
Total Dipole Moment    :      0.272990298      -0.905604995       0.496699975
                        -----------------------------------------
Magnitude (a.u.)       :      1.068342162
Magnitude (Debye)      :      2.715509970

Rotational constants in cm-1:             0.164023             0.032920             0.032414
Rotational constants in MHz :          4917.280670           986.924877           971.742499

                             ****ORCA TERMINATED NORMALLY****
TOTAL RUN TIME: 0 days 0 hours 0 minutes 39 seconds 537 msec
