                         Program Version 6.0.0  -   RELEASE  -
|  1> ! r2scan-3c def2/J RI DEFGRID2 scfconv6 printgap
|  2> %output
|  3>     printlevel normal
|  4> end
|  5> * xyz 0 1
|  6> C -2.309825047 -1.302830964 -0.1872637085
|  7> C -1.9070249499 -0.2158643876 0.803443757
|  8> C -1.5552572715 1.1143528439 0.1352986652
|  9> C -0.3729007226 1.0124939518 -0.8379614905
| 10> C 0.8505700061 0.500260713 -0.1262723629
| 11> O 1.4296915388 1.0745498986 0.7721123681
| 12> O 1.2325175201 -0.6845098957 -0.5928112887
| 13> C 2.3797875224 -1.2934718827 0.0038511802
| 14> H -1.4640074837 -1.6044719254 -0.7993494834
| 15> H -2.6693645982 -2.1790976393 0.3463274195
| 16> H -3.1047820735 -0.9462084345 -0.8377152045
| 17> H -2.7327889596 -0.0392241407 1.4959394307
| 18> H -1.053641424 -0.558244476 1.3948104062
| 19> H -1.3020755578 1.8402580154 0.910654568
| 20> H -2.4217289175 1.4857452504 -0.413183411
| 21> H -0.146752519 2.0078361443 -1.2221335435
| 22> H -0.6030093089 0.3458664246 -1.6662605508
| 23> H 2.5393515225 -2.2179438897 -0.5418166168
| 24> H 2.1907989927 -1.4897468347 1.0600146126
| 25> H 3.2415781517 -0.6309314655 -0.084033568
| 26> *
| 27>
| 28>                          ****END OF INPUT****

CARTESIAN COORDINATES (ANGSTROEM)
---------------------------------
  C     -2.309825   -1.302831   -0.187264
  C     -1.907025   -0.215864    0.803444
  C     -1.555257    1.114353    0.135299
  C     -0.372901    1.012494   -0.837961
  C      0.850570    0.500261   -0.126272
  O      1.429692    1.074550    0.772112
  O      1.232518   -0.684510   -0.592811
  C      2.379788   -1.293472    0.003851
  H     -1.464007   -1.604472   -0.799349
  H     -2.669365   -2.179098    0.346327
  H     -3.104782   -0.946208   -0.837715
  H     -2.732789   -0.039224    1.495939
  H     -1.053641   -0.558244    1.394810
  H     -1.302076    1.840258    0.910655
  H     -2.421729    1.485745   -0.413183
  H     -0.146753    2.007836   -1.222134
  H     -0.603009    0.345866   -1.666261
  H      2.539352   -2.217944   -0.541817
  H      2.190799   -1.489747    1.060015
  H      3.241578   -0.630931   -0.084034

 Total Charge           Charge          ....    0
 Multiplicity           Mult            ....    1
 Number of Electrons    NEL             ....   64
 Basis Dimension        Dim             ....  222

ORBITAL ENERGIES
----------------

  NO   OCC          E(Eh)            E(eV)
   0   2.0000     -19.000983      -517.0430
   1   2.0000     -18.929549      -515.0992
   2   2.0000     -10.152544      -276.2648
   3   2.0000     -10.087396      -274.4920
   4   2.0000     -10.041091      -273.2320
   5   2.0000     -10.034519      -273.0531
   6   2.0000     -10.028095      -272.8783
   7   2.0000     -10.017096      -272.5790
   8   2.0000      -1.074327       -29.2339
   9   2.0000      -0.976555       -26.5734
  10   2.0000      -0.779486       -21.2109
  11   2.0000      -0.724295       -19.7091
  12   2.0000      -0.686190       -18.6722
  13   2.0000      -0.623585       -16.9686
  14   2.0000      -0.556358       -15.1393
  15   2.0000      -0.523939       -14.2571
  16   2.0000      -0.469715       -12.7816
  17   2.0000      -0.458740       -12.4829
  18   2.0000      -0.447957       -12.1895
  19   2.0000      -0.427462       -11.6318
  20   2.0000      -0.419962       -11.4278
  21   2.0000      -0.390091       -10.6149
  22   2.0000      -0.375503       -10.2179
  23   2.0000      -0.362159        -9.8548
  24   2.0000      -0.356094        -9.6898
  25   2.0000      -0.340835        -9.2746
  26   2.0000      -0.320980        -8.7343
  27   2.0000      -0.303957        -8.2711
  28   2.0000      -0.298414        -8.1202
  29   2.0000      -0.297130        -8.0853
  30   2.0000      -0.275110        -7.4861
  31   2.0000      -0.236776        -6.4430
  32   0.0000      -0.017715        -0.4820
  33   0.0000       0.061722         1.6795
  34   0.0000       0.089499         2.4354
  35   0.0000       0.105998         2.8844
  36   0.0000       0.117697         3.2027

MULLIKEN ATOMIC CHARGES
-----------------------
   0 C :   -0.506255
   1 C :   -0.208762
   2 C :   -0.290225
   3 C :   -0.323177
   4 C :    0.335184
   5 O :   -0.410072
   6 O :   -0.176868
   7 C :   -0.295978
   8 H :    0.161580
   9 H :    0.146861
  10 H :    0.146606
  11 H :    0.145412
  12 H :    0.147111
  13 H :    0.165837
  14 H :    0.151885
  15 H :    0.165821
  16 H :    0.170922
  17 H :    0.150775
  18 H :    0.160358
  19 H :    0.162985
Sum of atomic charges:   -0.0000000

LOEWDIN ATOMIC CHARGES
----------------------
   0 C :   -0.425604
   1 C :   -0.311364
   2 C :   -0.285896
   3 C :   -0.231135
   4 C :    0.348083
   5 O :   -0.423571
   6 O :   -0.607577
   7 C :   -0.045549
   8 H :    0.154426
   9 H :    0.152310
  10 H :    0.150099
  11 H :    0.154354
  12 H :    0.157795
  13 H :    0.167922
  14 H :    0.156661
  15 H :    0.181400
  16 H :    0.177313
  17 H :    0.176202
  18 H :    0.176127
  19 H :    0.178005

  Mayer bond orders larger than 0.100000
B(  0-C ,  1-C ) :   0.8879 B(  0-C ,  8-H ) :   0.9745 B(  0-C ,  9-H ) :   0.9692
B(  0-C , 10-H ) :   0.9828 B(  1-C ,  2-C ) :   0.9017 B(  1-C , 11-H ) :   0.9597
B(  1-C , 12-H ) :   0.9657 B(  2-C ,  3-C ) :   0.8739 B(  2-C , 13-H ) :   0.9723
B(  2-C , 14-H ) :   0.9830 B(  3-C ,  4-C ) :   0.9236 B(  3-C , 15-H ) :   0.9398
B(  3-C , 16-H ) :   1.0049 B(  4-C ,  5-O ) :   1.8280 B(  4-C ,  6-O ) :   1.0575
B(  6-O ,  7-C ) :   0.8535 B(  7-C , 17-H ) :   0.9691 B(  7-C , 18-H ) :   0.9615
B(  7-C , 19-H ) :   0.9624

Dispersion correction           -0.005444789
FINAL SINGLE POINT ENERGY      -386.231137109700

DIPOLE MOMENT
-------------

Method             : SCF
Type of density    : Electron Density
Multiplicity       :   1
Irrep              :   0
Energy             :  -386.2377255833105210 Eh
Relativity type    :
Basis              : AO
                                X                 Y                 Z
Electronic contribution:      6.789927538       3.168733793      -0.100205985
Nuclear contribution   :     -7.021562966      -3.733901778      -0.332028455
                        -----------------------------------------
Total Dipole Moment    :     -0.231635428      -0.565167985      -0.432234440
                        -----------------------------------------
Magnitude (a.u.)       :      0.748262276
Magnitude (Debye)      :      1.901931557

Rotational constants in cm-1:             0.100907             0.045078             0.037096
Rotational constants in MHz :          3025.123710          1351.392409          1112.104963

                             ****ORCA TERMINATED NORMALLY****
TOTAL RUN TIME: 0 days 0 hours 0 minutes 26 seconds 871 msec
