                         Program Version 6.0.0  -   RELEASE  -
|  1> ! r2scan-3c def2/J RI DEFGRID2 scfconv6 printgap
|  2> %output
|  3>     printlevel normal
|  4> end
|  5> %cpcm
|  6>     smd true
|  7>     smdsolvent "water"
|  8> end
|  9> * xyz 0 1
| 10> C -2.309825047 -1.302830964 -0.1872637085
| 11> C -1.9070249499 -0.2158643876 0.803443757
| 12> C -1.5552572715 1.1143528439 0.1352986652
| 13> C -0.3729007226 1.0124939518 -0.8379614905
| 14> C 0.8505700061 0.500260713 -0.1262723629
| 15> O 1.4296915388 1.0745498986 0.7721123681
| 16> O 1.2325175201 -0.6845098957 -0.5928112887
| 17> C 2.3797875224 -1.2934718827 0.0038511802
| 18> H -1.4640074837 -1.6044719254 -0.7993494834
| 19> H -2.6693645982 -2.1790976393 0.3463274195
| 20> H -3.1047820735 -0.9462084345 -0.8377152045
| 21> H -2.7327889596 -0.0392241407 1.4959394307
| 22> H -1.053641424 -0.558244476 1.3948104062
| 23> H -1.3020755578 1.8402580154 0.910654568
| 24> H -2.4217289175 1.4857452504 -0.413183411
| 25> H -0.146752519 2.0078361443 -1.2221335435
| 26> H -0.6030093089 0.3458664246 -1.6662605508
| 27> H 2.5393515225 -2.2179438897 -0.5418166168
| 28> H 2.1907989927 -1.4897468347 1.0600146126
| 29> H 3.2415781517 -0.6309314655 -0.084033568
| 30> *
| 31>
| 32>                          ****END OF INPUT****

CARTESIAN COORDINATES (ANGSTROEM)
---------------------------------
  C     -2.309825   -1.302831   -0.187264
  C     -1.907025   -0.215864    0.803444
  C     -1.555257    1.114353    0.135299
  C     -0.372901    1.012494   -0.837961
  C      0.850570    0.500261   -0.126272
  O      1.429692    1.074550    0.772112
  O      1.232518   -0.684510   -0.592811
  C      2.379788   -1.293472    0.003851
  H     -1.464007   -1.604472   -0.799349
  H     -2.669365   -2.179098    0.346327
  H     -3.104782   -0.946208   -0.837715
  H     -2.732789   -0.039224    1.495939
  H     -1.053641   -0.558244    1.394810
  H     -1.302076    1.840258    0.910655
  H     -2.421729    1.485745   -0.413183
  H     -0.146753    2.007836   -1.222134
  H     -0.603009    0.345866   -1.666261
  H      2.539352   -2.217944   -0.541817
  H      2.190799   -1.489747    1.060015
  H      3.241578   -0.630931   -0.084034

 Total Charge           Charge          ....    0
 Multiplicity           Mult            ....    1
 Number of Electrons    NEL             ....   64
 Basis Dimension        Dim             ....  222

ORBITAL ENERGIES
----------------

  NO   OCC          E(Eh)            E(eV)
   0   2.0000     -19.005455      -517.1647
   1   2.0000     -18.944593      -515.5086
   2   2.0000     -10.162273      -276.5295
   3   2.0000     -10.076390      -274.1925
   4   2.0000     -10.035096      -273.0688
   5   2.0000     -10.027228      -272.8547
   6   2.0000     -10.019924      -272.6560
   7   2.0000     -10.008259      -272.3386
   8   2.0000      -1.080372       -29.3984
   9   2.0000      -0.989403       -26.9230
  10   2.0000      -0.773686       -21.0531
  11   2.0000      -0.719059       -19.5666
  12   2.0000      -0.679263       -18.4837
  13   2.0000      -0.616435       -16.7740
  14   2.0000      -0.550269       -14.9736
  15   2.0000      -0.521112       -14.1802
  16   2.0000      -0.469775       -12.7832
  17   2.0000      -0.461350       -12.5540
  18   2.0000      -0.450152       -12.2492
  19   2.0000      -0.421316       -11.4646
  20   2.0000      -0.418531       -11.3888
  21   2.0000      -0.386657       -10.5215
  22   2.0000      -0.372218       -10.1286
  23   2.0000      -0.355825        -9.6825
  24   2.0000      -0.348736        -9.4896
  25   2.0000      -0.338376        -9.2077
  26   2.0000      -0.321082        -8.7371
  27   2.0000      -0.296922        -8.0797
  28   2.0000      -0.291536        -7.9331
  29   2.0000      -0.289742        -7.8843
  30   2.0000      -0.281361        -7.6562
  31   2.0000      -0.252517        -6.8713
  32   0.0000      -0.024913        -0.6779
  33   0.0000       0.067002         1.8232
  34   0.0000       0.098316         2.6753
  35   0.0000       0.117157         3.1880
  36   0.0000       0.122506         3.3336

MULLIKEN ATOMIC CHARGES
-----------------------
   0 C :   -0.533102
   1 C :   -0.220788
   2 C :   -0.304489
   3 C :   -0.339571
   4 C :    0.377386
   5 O :   -0.496350
   6 O :   -0.191100
   7 C :   -0.331662
   8 H :    0.163417
   9 H :    0.157618
  10 H :    0.159667
  11 H :    0.156222
  12 H :    0.152115
  13 H :    0.165158
  14 H :    0.171173
  15 H :    0.191461
  16 H :    0.186949
  17 H :    0.178758
  18 H :    0.179108
  19 H :    0.178028
Sum of atomic charges:   -0.0000000

LOEWDIN ATOMIC CHARGES
----------------------
   0 C :   -0.431208
   1 C :   -0.313744
   2 C :   -0.285871
   3 C :   -0.228811
   4 C :    0.358092
   5 O :   -0.485310
   6 O :   -0.607736
   7 C :   -0.043202
   8 H :    0.154507
   9 H :    0.154719
  10 H :    0.154386
  11 H :    0.157710
  12 H :    0.158032
  13 H :    0.165562
  14 H :    0.164364
  15 H :    0.190047
  16 H :    0.184847
  17 H :    0.188408
  18 H :    0.182325
  19 H :    0.182884

  Mayer bond orders larger than 0.100000
B(  0-C ,  1-C ) :   0.8862 B(  0-C ,  8-H ) :   0.9736 B(  0-C ,  9-H ) :   0.9672
B(  0-C , 10-H ) :   0.9789 B(  1-C ,  2-C ) :   0.8938 B(  1-C , 11-H ) :   0.9579
B(  1-C , 12-H ) :   0.9669 B(  2-C ,  3-C ) :   0.8575 B(  2-C , 13-H ) :   0.9777
B(  2-C , 14-H ) :   0.9763 B(  3-C ,  4-C ) :   0.9256 B(  3-C , 15-H ) :   0.9347
B(  3-C , 16-H ) :   0.9949 B(  4-C ,  5-O ) :   1.7600 B(  4-C ,  6-O ) :   1.0827
B(  6-O ,  7-C ) :   0.8337 B(  7-C , 17-H ) :   0.9591 B(  7-C , 18-H ) :   0.9561
B(  7-C , 19-H ) :   0.9571

Dispersion correction           -0.005444789
FINAL SINGLE POINT ENERGY      -386.236193005687

DIPOLE MOMENT
-------------

Method             : SCF
Type of density    : Electron Density
Multiplicity       :   1
Irrep              :   0
Energy             :  -386.2427814792969798 Eh
Relativity type    :
Basis              : AO
                                X                 Y                 Z
Electronic contribution:      6.652867031       2.963096592      -0.340617726
Nuclear contribution   :     -7.021562966      -3.733901778      -0.332028455
                        -----------------------------------------
Total Dipole Moment    :     -0.368695935      -0.770805185      -0.672646182
                        -----------------------------------------
Magnitude (a.u.)       :      1.087442050
Magnitude (Debye)      :      2.764058028

Rotational constants in cm-1:             0.100907             0.045078             0.037096
Rotational constants in MHz :          3025.123710          1351.392409          1112.104963

                             ****ORCA TERMINATED NORMALLY****
TOTAL RUN TIME: 0 days 0 hours 0 minutes 35 seconds 286 msec
