                         Program Version 6.0.0  -   RELEASE  -
|  1> ! pbe def2-sv(p) def2/J RI DEFGRID1 loosescf d4 GCP(DFT/SV(P)) printgap
|  2> %output
|  3>     printlevel normal
|  4> end
|  5> * xyz 0 1
|  6> C -2.3093043994 -1.3034088474 -0.1856071596
|  7> C -1.9115191571 -0.2107236823 0.8008736095
|  8> C -1.5573590802 1.1159372927 0.1269284381
|  9> C -0.3704387798 1.0091374685 -0.8400216972
| 10> C 0.8494995803 0.498087634 -0.1211068808
| 11> O 1.4200485728 1.0721938675 0.7829287222
| 12> O 1.2399431432 -0.6812254168 -0.5937431989
| 13> C 2.3863072185 -1.2949715998 0.0002578061
| 14> H -1.46089185 -1.6076399913 -0.7928400918
| 15> H -2.6702411646 -2.1771417584 0.351191767
| 16> H -3.1019907668 -0.9510948785 -0.8411445709
| 17> H -2.7404799107 -0.0307770032 1.4886898537
| 18> H -1.0604851258 -0.5489434894 1.398047932
| 19> H -1.3081313396 1.8460789537 0.8995406227
| 20> H -2.4213955196 1.4839216965 -0.4276650456
| 21> H -0.1409697473 2.0028268998 -1.2266146591
| 22> H -0.5971214366 0.3401762372 -1.6674069055
| 23> H 3.1764519345 -0.5557680312 0.1372329966
| 24> H 2.6935846675 -2.0772603743 -0.6867774989
| 25> H 2.1185686718 -1.7147686362 0.9705446667
| 26> *
| 27>
| 28>                          ****END OF INPUT****

CARTESIAN COORDINATES (ANGSTROEM)
---------------------------------
  C     -2.309304   -1.303409   -0.185607
  C     -1.911519   -0.210724    0.800874
  C     -1.557359    1.115937    0.126928
  C     -0.370439    1.009137   -0.840022
  C      0.849500    0.498088   -0.121107
  O      1.420049    1.072194    0.782929
  O      1.239943   -0.681225   -0.593743
  C      2.386307   -1.294972    0.000258
  H     -1.460892   -1.607640   -0.792840
  H     -2.670241   -2.177142    0.351192
  H     -3.101991   -0.951095   -0.841145
  H     -2.740480   -0.030777    1.488690
  H     -1.060485   -0.548943    1.398048
  H     -1.308131    1.846079    0.899541
  H     -2.421396    1.483922   -0.427665
  H     -0.140970    2.002827   -1.226615
  H     -0.597121    0.340176   -1.667407
  H      3.176452   -0.555768    0.137233
  H      2.693585   -2.077260   -0.686777
  H      2.118569   -1.714769    0.970545

 Total Charge           Charge          ....    0
 Multiplicity           Mult            ....    1
 Number of Electrons    NEL             ....   64
 Basis Dimension        Dim             ....  136

ORBITAL ENERGIES
----------------

  NO   OCC          E(Eh)            E(eV)
   0   2.0000     -18.801595      -511.6174
   1   2.0000     -18.731687      -509.7151
   2   2.0000     -10.004740      -272.2428
   3   2.0000      -9.942244      -270.5422
   4   2.0000      -9.895821      -269.2790
   5   2.0000      -9.891117      -269.1510
   6   2.0000      -9.885943      -269.0102
   7   2.0000      -9.874834      -268.7079
   8   2.0000      -1.006176       -27.3794
   9   2.0000      -0.908741       -24.7281
  10   2.0000      -0.732599       -19.9350
  11   2.0000      -0.682545       -18.5730
  12   2.0000      -0.646007       -17.5788
  13   2.0000      -0.585070       -15.9206
  14   2.0000      -0.524242       -14.2654
  15   2.0000      -0.496880       -13.5208
  16   2.0000      -0.448884       -12.2147
  17   2.0000      -0.437107       -11.8943
  18   2.0000      -0.425379       -11.5752
  19   2.0000      -0.410492       -11.1701
  20   2.0000      -0.397125       -10.8063
  21   2.0000      -0.371798       -10.1171
  22   2.0000      -0.361583        -9.8392
  23   2.0000      -0.346851        -9.4383
  24   2.0000      -0.341766        -9.2999
  25   2.0000      -0.325617        -8.8605
  26   2.0000      -0.302667        -8.2360
  27   2.0000      -0.291584        -7.9344
  28   2.0000      -0.286502        -7.7961
  29   2.0000      -0.285021        -7.7558
  30   2.0000      -0.258419        -7.0319
  31   2.0000      -0.217576        -5.9206
  32   0.0000      -0.021159        -0.5758
  33   0.0000       0.035013         0.9527
  34   0.0000       0.054975         1.4959
  35   0.0000       0.071162         1.9364
  36   0.0000       0.078174         2.1272

MULLIKEN ATOMIC CHARGES
-----------------------
   0 C :   -0.294086
   1 C :   -0.192515
   2 C :   -0.182898
   3 C :   -0.125268
   4 C :    0.085717
   5 O :   -0.210311
   6 O :   -0.239697
   7 C :   -0.116011
   8 H :    0.111297
   9 H :    0.103032
  10 H :    0.096985
  11 H :    0.090142
  12 H :    0.103709
  13 H :    0.103112
  14 H :    0.089862
  15 H :    0.110751
  16 H :    0.101046
  17 H :    0.124120
  18 H :    0.121817
  19 H :    0.119195
Sum of atomic charges:   -0.0000000

LOEWDIN ATOMIC CHARGES
----------------------
   0 C :   -0.346336
   1 C :   -0.238059
   2 C :   -0.217938
   3 C :   -0.247685
   4 C :    0.035795
   5 O :   -0.171657
   6 O :   -0.071809
   7 C :   -0.205347
   8 H :    0.117377
   9 H :    0.120413
  10 H :    0.116401
  11 H :    0.118505
  12 H :    0.117468
  13 H :    0.124357
  14 H :    0.117706
  15 H :    0.141887
  16 H :    0.127892
  17 H :    0.121478
  18 H :    0.120680
  19 H :    0.118871

  Mayer bond orders larger than 0.100000
B(  0-C ,  1-C ) :   1.1535 B(  0-C ,  8-H ) :   0.9448 B(  0-C ,  9-H ) :   0.9513
B(  0-C , 10-H ) :   0.9552 B(  1-C ,  2-C ) :   1.1362 B(  1-C , 11-H ) :   0.9250
B(  1-C , 12-H ) :   0.9135 B(  2-C ,  3-C ) :   1.1121 B(  2-C , 13-H ) :   0.9177
B(  2-C , 14-H ) :   0.9234 B(  3-C ,  4-C ) :   1.0213 B(  3-C , 15-H ) :   0.8940
B(  3-C , 16-H ) :   0.9032 B(  4-C ,  5-O ) :   2.0553 B(  4-C ,  6-O ) :   1.2014
B(  6-O ,  7-C ) :   0.9392 B(  7-C , 17-H ) :   0.9444 B(  7-C , 18-H ) :   0.9597
B(  7-C , 19-H ) :   0.9563

Dispersion correction           -0.016011070
FINAL SINGLE POINT ENERGY      -385.452763927348

DIPOLE MOMENT
-------------

Method             : SCF
Type of density    : Electron Density
Multiplicity       :   1
Irrep              :   0
Energy             :  -385.5275944154577701 Eh
Relativity type    :
Basis              : AO
                                X                 Y                 Z
Electronic contribution:      6.885361508       3.193293120      -0.009277242
Nuclear contribution   :     -7.009098913      -3.737854020      -0.369835414
                        -----------------------------------------
Total Dipole Moment    :     -0.123737405      -0.544560900      -0.379112656
                        -----------------------------------------
Magnitude (a.u.)       :      0.674969574
Magnitude (Debye)      :      1.715636313

Rotational constants in cm-1:             0.100899             0.044980             0.037061
Rotational constants in MHz :          3024.879707          1348.459846          1111.048124

                             ****ORCA TERMINATED NORMALLY****
TOTAL RUN TIME: 0 days 0 hours 0 minutes 10 seconds 929 msec
