                         Program Version 6.0.0  -   RELEASE  -
|  1> ! pbe def2-sv(p) def2/J RI DEFGRID1 loosescf d4 GCP(DFT/SV(P)) printgap
|  2> %output
|  3>     printlevel normal
|  4> end
|  5> * xyz 0 1
|  6> C -2.3257449468 -1.388714109 0.3921039171
|  7> C -2.5131408775 0.050335514 -0.0731977077
|  8> C -1.3103743856 0.5413194003 -0.8824350168
|  9> C -0.0788627046 0.6552121445 -0.0197390312
| 10> O -0.0516342774 1.1472990136 1.0896207576
| 11> O 0.985495152 0.1569927634 -0.6337381305
| 12> C 2.2602550241 0.1676614521 0.0323300868
| 13> C 2.8495714316 -1.2326846808 0.0108500739
| 14> H -3.2002475045 -1.7262622184 0.941763724
| 15> H -2.173406501 -2.0496359468 -0.4578574028
| 16> H -1.4603933299 -1.4635541373 1.0481010417
| 17> H -2.6387587156 0.7011902926 0.7940195459
| 18> H -3.4080496262 0.1228363431 -0.691557034
| 19> H -1.5180643258 1.5381743714 -1.2765154323
| 20> H -1.0907881392 -0.1281337675 -1.7134364373
| 21> H 2.8946059436 0.8684613431 -0.5165553602
| 22> H 2.1148021618 0.5304674566 1.0545188753
| 23> H 2.2152382963 -1.9189070324 0.5658264225
| 24> H 2.9327325173 -1.5827838518 -1.0139328122
| 25> H 3.834804756 -1.2140742425 0.4650936626
| 26> *
| 27>
| 28>                          ****END OF INPUT****

CARTESIAN COORDINATES (ANGSTROEM)
---------------------------------
  C     -2.325745   -1.388714    0.392104
  C     -2.513141    0.050336   -0.073198
  C     -1.310374    0.541319   -0.882435
  C     -0.078863    0.655212   -0.019739
  O     -0.051634    1.147299    1.089621
  O      0.985495    0.156993   -0.633738
  C      2.260255    0.167661    0.032330
  C      2.849571   -1.232685    0.010850
  H     -3.200248   -1.726262    0.941764
  H     -2.173407   -2.049636   -0.457857
  H     -1.460393   -1.463554    1.048101
  H     -2.638759    0.701190    0.794020
  H     -3.408050    0.122836   -0.691557
  H     -1.518064    1.538174   -1.276515
  H     -1.090788   -0.128134   -1.713436
  H      2.894606    0.868461   -0.516555
  H      2.114802    0.530467    1.054519
  H      2.215238   -1.918907    0.565826
  H      2.932733   -1.582784   -1.013933
  H      3.834805   -1.214074    0.465094

 Total Charge           Charge          ....    0
 Multiplicity           Mult            ....    1
 Number of Electrons    NEL             ....   64
 Basis Dimension        Dim             ....  136

ORBITAL ENERGIES
----------------

  NO   OCC          E(Eh)            E(eV)
   0   2.0000     -18.797554      -511.5075
   1   2.0000     -18.730796      -509.6909
   2   2.0000     -10.005104      -272.2527
   3   2.0000      -9.945047      -270.6185
   4   2.0000      -9.895931      -269.2820
   5   2.0000      -9.889590      -269.1094
   6   2.0000      -9.888959      -269.0923
   7   2.0000      -9.875731      -268.7323
   8   2.0000      -1.003353       -27.3026
   9   2.0000      -0.908371       -24.7180
  10   2.0000      -0.726668       -19.7737
  11   2.0000      -0.699083       -19.0230
  12   2.0000      -0.636343       -17.3158
  13   2.0000      -0.586928       -15.9711
  14   2.0000      -0.530516       -14.4361
  15   2.0000      -0.498532       -13.5658
  16   2.0000      -0.449383       -12.2283
  17   2.0000      -0.441069       -12.0021
  18   2.0000      -0.420676       -11.4472
  19   2.0000      -0.396949       -10.8015
  20   2.0000      -0.387453       -10.5431
  21   2.0000      -0.372825       -10.1451
  22   2.0000      -0.361020        -9.8238
  23   2.0000      -0.353308        -9.6140
  24   2.0000      -0.339523        -9.2389
  25   2.0000      -0.329729        -8.9724
  26   2.0000      -0.303323        -8.2538
  27   2.0000      -0.297725        -8.1015
  28   2.0000      -0.295623        -8.0443
  29   2.0000      -0.287178        -7.8145
  30   2.0000      -0.254123        -6.9150
  31   2.0000      -0.218660        -5.9500
  32   0.0000      -0.018878        -0.5137
  33   0.0000       0.035622         0.9693
  34   0.0000       0.054512         1.4833
  35   0.0000       0.071971         1.9584
  36   0.0000       0.083131         2.2621

MULLIKEN ATOMIC CHARGES
-----------------------
   0 C :   -0.291026
   1 C :   -0.191676
   2 C :   -0.134645
   3 C :    0.091437
   4 O :   -0.207430
   5 O :   -0.237302
   6 C :   -0.029440
   7 C :   -0.286883
   8 H :    0.107171
   9 H :    0.097594
  10 H :    0.115503
  11 H :    0.107884
  12 H :    0.088975
  13 H :    0.115331
  14 H :    0.093641
  15 H :    0.103528
  16 H :    0.117064
  17 H :    0.113892
  18 H :    0.114585
  19 H :    0.111794
Sum of atomic charges:    0.0000000

LOEWDIN ATOMIC CHARGES
----------------------
   0 C :   -0.342655
   1 C :   -0.229022
   2 C :   -0.247982
   3 C :    0.036478
   4 O :   -0.172867
   5 O :   -0.067366
   6 C :   -0.114957
   7 C :   -0.351399
   8 H :    0.121518
   9 H :    0.116297
  10 H :    0.120363
  11 H :    0.125278
  12 H :    0.117557
  13 H :    0.143605
  14 H :    0.126777
  15 H :    0.116615
  16 H :    0.120707
  17 H :    0.126038
  18 H :    0.125208
  19 H :    0.129808

  Mayer bond orders larger than 0.100000
B(  0-C ,  1-C ) :   1.1551 B(  0-C ,  8-H ) :   0.9524 B(  0-C ,  9-H ) :   0.9539
B(  0-C , 10-H ) :   0.9498 B(  1-C ,  2-C ) :   1.1138 B(  1-C , 11-H ) :   0.9177
B(  1-C , 12-H ) :   0.9273 B(  2-C ,  3-C ) :   1.0120 B(  2-C , 13-H ) :   0.8908
B(  2-C , 14-H ) :   0.9117 B(  3-C ,  4-O ) :   2.0497 B(  3-C ,  5-O ) :   1.2173
B(  5-O ,  6-C ) :   0.9136 B(  6-C ,  7-C ) :   1.1669 B(  6-C , 15-H ) :   0.9354
B(  6-C , 16-H ) :   0.9060 B(  7-C , 17-H ) :   0.9510 B(  7-C , 18-H ) :   0.9499
B(  7-C , 19-H ) :   0.9448

Dispersion correction           -0.014948269
FINAL SINGLE POINT ENERGY      -385.457947023915

DIPOLE MOMENT
-------------

Method             : SCF
Type of density    : Electron Density
Multiplicity       :   1
Irrep              :   0
Energy             :  -385.5329950604091209 Eh
Relativity type    :
Basis              : AO
                                X                 Y                 Z
Electronic contribution:      1.697332034       5.540591887       0.215464525
Nuclear contribution   :     -1.391080141      -5.911957315      -0.744271816
                        -----------------------------------------
Total Dipole Moment    :      0.306251893      -0.371365428      -0.528807291
                        -----------------------------------------
Magnitude (a.u.)       :      0.715080173
Magnitude (Debye)      :      1.817589355

Rotational constants in cm-1:             0.120207             0.036277             0.033054
Rotational constants in MHz :          3603.722230          1087.566831           990.924564

                             ****ORCA TERMINATED NORMALLY****
TOTAL RUN TIME: 0 days 0 hours 0 minutes 10 seconds 874 msec
