                         Program Version 6.0.0  -   RELEASE  -
|  1> ! pbe def2-sv(p) def2/J RI DEFGRID1 loosescf d4 GCP(DFT/SV(P)) printgap
|  2> %output
|  3>     printlevel normal
|  4> end
|  5> * xyz 0 1
|  6> C -2.1864061061 -1.3983022137 0.9264319288
|  7> C -2.1308911874 -0.563106213 -0.3472032889
|  8> C -1.5182956218 0.8262181173 -0.1293118617
|  9> C -0.0106140711 0.8568301517 -0.147427173
| 10> O 0.6324227133 1.7356362194 -0.6882620052
| 11> O 0.5443981694 -0.1544888309 0.5033173526
| 12> C 1.9780555076 -0.241127131 0.5379749115
| 13> C 2.5098755561 -0.9900256805 -0.6744440885
| 14> H -1.1902347485 -1.546136124 1.3314589436
| 15> H -2.7968731759 -0.9028062448 1.67764756
| 16> H -2.6239606771 -2.3706960727 0.7155066984
| 17> H -3.1455660276 -0.4272791295 -0.7247875933
| 18> H -1.560816362 -1.0937335096 -1.1117453384
| 19> H -1.8396296141 1.2179440156 0.8386118541
| 20> H -1.8501392887 1.5225455263 -0.9005552968
| 21> H 2.3886701766 0.7724205173 0.575405448
| 22> H 2.2005498544 -0.7745812029 1.462627714
| 23> H 3.5867238632 -1.0933601078 -0.5898120649
| 24> H 2.0580551504 -1.9765701688 -0.7339571706
| 25> H 2.2787512375 -0.4382239885 -1.5830318571
| 26> *
| 27>
| 28>                          ****END OF INPUT****

CARTESIAN COORDINATES (ANGSTROEM)
---------------------------------
  C     -2.186406   -1.398302    0.926432
  C     -2.130891   -0.563106   -0.347203
  C     -1.518296    0.826218   -0.129312
  C     -0.010614    0.856830   -0.147427
  O      0.632423    1.735636   -0.688262
  O      0.544398   -0.154489    0.503317
  C      1.978056   -0.241127    0.537975
  C      2.509876   -0.990026   -0.674444
  H     -1.190235   -1.546136    1.331459
  H     -2.796873   -0.902806    1.677648
  H     -2.623961   -2.370696    0.715507
  H     -3.145566   -0.427279   -0.724788
  H     -1.560816   -1.093734   -1.111745
  H     -1.839630    1.217944    0.838612
  H     -1.850139    1.522546   -0.900555
  H      2.388670    0.772421    0.575405
  H      2.200550   -0.774581    1.462628
  H      3.586724   -1.093360   -0.589812
  H      2.058055   -1.976570   -0.733957
  H      2.278751   -0.438224   -1.583032

 Total Charge           Charge          ....    0
 Multiplicity           Mult            ....    1
 Number of Electrons    NEL             ....   64
 Basis Dimension        Dim             ....  136

ORBITAL ENERGIES
----------------

  NO   OCC          E(Eh)            E(eV)
   0   2.0000     -18.799867      -511.5704
   1   2.0000     -18.729314      -509.6506
   2   2.0000     -10.005651      -272.2676
   3   2.0000      -9.947646      -270.6892
   4   2.0000      -9.897299      -269.3192
   5   2.0000      -9.892914      -269.1999
   6   2.0000      -9.887952      -269.0648
   7   2.0000      -9.872957      -268.6568
   8   2.0000      -1.006544       -27.3894
   9   2.0000      -0.907031       -24.6816
  10   2.0000      -0.728752       -19.8304
  11   2.0000      -0.694706       -18.9039
  12   2.0000      -0.636133       -17.3101
  13   2.0000      -0.591835       -16.1047
  14   2.0000      -0.536713       -14.6047
  15   2.0000      -0.497003       -13.5241
  16   2.0000      -0.455586       -12.3971
  17   2.0000      -0.434011       -11.8100
  18   2.0000      -0.411570       -11.1994
  19   2.0000      -0.400590       -10.9006
  20   2.0000      -0.389270       -10.5926
  21   2.0000      -0.372981       -10.1493
  22   2.0000      -0.366982        -9.9861
  23   2.0000      -0.353830        -9.6282
  24   2.0000      -0.334240        -9.0951
  25   2.0000      -0.331268        -9.0142
  26   2.0000      -0.310864        -8.4590
  27   2.0000      -0.299273        -8.1436
  28   2.0000      -0.297718        -8.1013
  29   2.0000      -0.282564        -7.6890
  30   2.0000      -0.256175        -6.9709
  31   2.0000      -0.214219        -5.8292
  32   0.0000      -0.019125        -0.5204
  33   0.0000       0.036284         0.9873
  34   0.0000       0.051629         1.4049
  35   0.0000       0.072451         1.9715
  36   0.0000       0.078417         2.1338

MULLIKEN ATOMIC CHARGES
-----------------------
   0 C :   -0.288729
   1 C :   -0.187941
   2 C :   -0.135075
   3 C :    0.095975
   4 O :   -0.210028
   5 O :   -0.233633
   6 C :   -0.012736
   7 C :   -0.304859
   8 H :    0.115814
   9 H :    0.095247
  10 H :    0.101004
  11 H :    0.091090
  12 H :    0.095450
  13 H :    0.112150
  14 H :    0.103668
  15 H :    0.109253
  16 H :    0.101235
  17 H :    0.112720
  18 H :    0.113077
  19 H :    0.126318
Sum of atomic charges:   -0.0000000

LOEWDIN ATOMIC CHARGES
----------------------
   0 C :   -0.348414
   1 C :   -0.229901
   2 C :   -0.244684
   3 C :    0.036743
   4 O :   -0.173377
   5 O :   -0.060517
   6 C :   -0.113085
   7 C :   -0.355985
   8 H :    0.119166
   9 H :    0.115208
  10 H :    0.118283
  11 H :    0.119757
  12 H :    0.118295
  13 H :    0.140971
  14 H :    0.136316
  15 H :    0.120041
  16 H :    0.116341
  17 H :    0.130513
  18 H :    0.123878
  19 H :    0.130450

  Mayer bond orders larger than 0.100000
B(  0-C ,  1-C ) :   1.1484 B(  0-C ,  8-H ) :   0.9475 B(  0-C ,  9-H ) :   0.9531
B(  0-C , 10-H ) :   0.9504 B(  1-C ,  2-C ) :   1.0839 B(  1-C , 11-H ) :   0.9261
B(  1-C , 12-H ) :   0.9341 B(  2-C ,  3-C ) :   1.0465 B(  2-C , 13-H ) :   0.8932
B(  2-C , 14-H ) :   0.9103 B(  3-C ,  4-O ) :   2.0474 B(  3-C ,  5-O ) :   1.2023
B(  5-O ,  6-C ) :   0.9189 B(  6-C ,  7-C ) :   1.1732 B(  6-C , 15-H ) :   0.9127
B(  6-C , 16-H ) :   0.9365 B(  7-C , 17-H ) :   0.9444 B(  7-C , 18-H ) :   0.9496
B(  7-C , 19-H ) :   0.9462

Dispersion correction           -0.015409536
FINAL SINGLE POINT ENERGY      -385.455436007047

DIPOLE MOMENT
-------------

Method             : SCF
Type of density    : Electron Density
Multiplicity       :   1
Irrep              :   0
Energy             :  -385.5307239788939455 Eh
Relativity type    :
Basis              : AO
                                X                 Y                 Z
Electronic contribution:      2.303673421       5.982340857      -0.576309230
Nuclear contribution   :     -2.322778225      -6.647366738       0.895429228
                        -----------------------------------------
Total Dipole Moment    :     -0.019104803      -0.665025881       0.319119997
                        -----------------------------------------
Magnitude (a.u.)       :      0.737876676
Magnitude (Debye)      :      1.875533459

Rotational constants in cm-1:             0.100089             0.044250             0.035038
Rotational constants in MHz :          3000.602066          1326.596284          1050.419487

                             ****ORCA TERMINATED NORMALLY****
TOTAL RUN TIME: 0 days 0 hours 0 minutes 12 seconds 825 msec
