                         Program Version 6.0.0  -   RELEASE  -
|  1> ! pbe def2-sv(p) def2/J RI DEFGRID1 loosescf d4 GCP(DFT/SV(P)) printgap
|  2> %output
|  3>     printlevel normal
|  4> end
|  5> * xyz 0 1
|  6> C -3.6424781245 -0.6252924392 0.2423117652
|  7> C -2.3368810889 -0.2021484463 -0.4182091774
|  8> C -1.1851722 -0.1845996123 0.5830129141
|  9> C 0.1089977828 0.2660910475 -0.0413327279
| 10> O 0.2312946292 0.6992549008 -1.1671642156
| 11> O 1.1208214889 0.1445701043 0.8137775398
| 12> C 2.4356654416 0.526929687 0.3753365996
| 13> C 3.127050424 -0.6159754558 -0.352239415
| 14> H -3.9082478802 0.0653077736 1.0386918941
| 15> H -4.4474063676 -0.635415487 -0.4872216728
| 16> H -3.5493071718 -1.6219179293 0.6663875708
| 17> H -2.4424696188 0.7925966243 -0.8548486709
| 18> H -2.0914757425 -0.8867896753 -1.2321802329
| 19> H -1.0249353683 -1.1737345293 1.0150795033
| 20> H -1.4055031728 0.4970476838 1.4076131189
| 21> H 2.3454921102 1.400115483 -0.2779694836
| 22> H 2.9633771052 0.7914157381 1.2920269112
| 23> H 4.1387926717 -0.3193642255 -0.6086738778
| 24> H 3.1605860704 -1.4975513231 0.2821447274
| 25> H 2.5873078586 -0.8560659314 -1.2656181004
| 26> *
| 27>
| 28>                          ****END OF INPUT****

CARTESIAN COORDINATES (ANGSTROEM)
---------------------------------
  C     -3.642478   -0.625292    0.242312
  C     -2.336881   -0.202148   -0.418209
  C     -1.185172   -0.184600    0.583013
  C      0.108998    0.266091   -0.041333
  O      0.231295    0.699255   -1.167164
  O      1.120821    0.144570    0.813778
  C      2.435665    0.526930    0.375337
  C      3.127050   -0.615975   -0.352239
  H     -3.908248    0.065308    1.038692
  H     -4.447406   -0.635415   -0.487222
  H     -3.549307   -1.621918    0.666388
  H     -2.442470    0.792597   -0.854849
  H     -2.091476   -0.886790   -1.232180
  H     -1.024935   -1.173735    1.015080
  H     -1.405503    0.497048    1.407613
  H      2.345492    1.400115   -0.277969
  H      2.963377    0.791416    1.292027
  H      4.138793   -0.319364   -0.608674
  H      3.160586   -1.497551    0.282145
  H      2.587308   -0.856066   -1.265618

 Total Charge           Charge          ....    0
 Multiplicity           Mult            ....    1
 Number of Electrons    NEL             ....   64
 Basis Dimension        Dim             ....  136

ORBITAL ENERGIES
----------------

  NO   OCC          E(Eh)            E(eV)
   0   2.0000     -18.794755      -511.4313
   1   2.0000     -18.732982      -509.7503
   2   2.0000     -10.005222      -272.2559
   3   2.0000      -9.945486      -270.6304
   4   2.0000      -9.897731      -269.3309
   5   2.0000      -9.885936      -269.0100
   6   2.0000      -9.885780      -269.0058
   7   2.0000      -9.876300      -268.7478
   8   2.0000      -1.002248       -27.2726
   9   2.0000      -0.909146       -24.7391
  10   2.0000      -0.725030       -19.7291
  11   2.0000      -0.696375       -18.9493
  12   2.0000      -0.638861       -17.3843
  13   2.0000      -0.587797       -15.9948
  14   2.0000      -0.528319       -14.3763
  15   2.0000      -0.490905       -13.3582
  16   2.0000      -0.452779       -12.3207
  17   2.0000      -0.438510       -11.9325
  18   2.0000      -0.419411       -11.4128
  19   2.0000      -0.400222       -10.8906
  20   2.0000      -0.391558       -10.6548
  21   2.0000      -0.371409       -10.1066
  22   2.0000      -0.360810        -9.8181
  23   2.0000      -0.350236        -9.5304
  24   2.0000      -0.336212        -9.1488
  25   2.0000      -0.323258        -8.7963
  26   2.0000      -0.309333        -8.4174
  27   2.0000      -0.299991        -8.1632
  28   2.0000      -0.291875        -7.9423
  29   2.0000      -0.287799        -7.8314
  30   2.0000      -0.254541        -6.9264
  31   2.0000      -0.218852        -5.9553
  32   0.0000      -0.018126        -0.4932
  33   0.0000       0.036390         0.9902
  34   0.0000       0.053635         1.4595
  35   0.0000       0.079393         2.1604
  36   0.0000       0.081639         2.2215

MULLIKEN ATOMIC CHARGES
-----------------------
   0 C :   -0.252779
   1 C :   -0.197810
   2 C :   -0.181936
   3 C :    0.134412
   4 O :   -0.209676
   5 O :   -0.242752
   6 C :   -0.009469
   7 C :   -0.304889
   8 H :    0.095550
   9 H :    0.105332
  10 H :    0.095390
  11 H :    0.100742
  12 H :    0.096114
  13 H :    0.106186
  14 H :    0.109966
  15 H :    0.105854
  16 H :    0.100127
  17 H :    0.111325
  18 H :    0.111934
  19 H :    0.126379
Sum of atomic charges:   -0.0000000

LOEWDIN ATOMIC CHARGES
----------------------
   0 C :   -0.339522
   1 C :   -0.230625
   2 C :   -0.251353
   3 C :    0.039898
   4 O :   -0.167235
   5 O :   -0.073453
   6 C :   -0.112576
   7 C :   -0.356802
   8 H :    0.116464
   9 H :    0.120989
  10 H :    0.116210
  11 H :    0.122656
  12 H :    0.120843
  13 H :    0.136324
  14 H :    0.140045
  15 H :    0.118386
  16 H :    0.116233
  17 H :    0.129723
  18 H :    0.123701
  19 H :    0.130097

  Mayer bond orders larger than 0.100000
B(  0-C ,  1-C ) :   1.1533 B(  0-C ,  8-H ) :   0.9536 B(  0-C ,  9-H ) :   0.9541
B(  0-C , 10-H ) :   0.9531 B(  1-C ,  2-C ) :   1.1332 B(  1-C , 11-H ) :   0.9249
B(  1-C , 12-H ) :   0.9297 B(  2-C ,  3-C ) :   1.0176 B(  2-C , 13-H ) :   0.9018
B(  2-C , 14-H ) :   0.8932 B(  3-C ,  4-O ) :   2.0378 B(  3-C ,  5-O ) :   1.2130
B(  5-O ,  6-C ) :   0.9244 B(  6-C ,  7-C ) :   1.1732 B(  6-C , 15-H ) :   0.9144
B(  6-C , 16-H ) :   0.9377 B(  7-C , 17-H ) :   0.9445 B(  7-C , 18-H ) :   0.9491
B(  7-C , 19-H ) :   0.9464

Dispersion correction           -0.014599427
FINAL SINGLE POINT ENERGY      -385.459010842645

DIPOLE MOMENT
-------------

Method             : SCF
Type of density    : Electron Density
Multiplicity       :   1
Irrep              :   0
Energy             :  -385.5342465830984793 Eh
Relativity type    :
Basis              : AO
                                X                 Y                 Z
Electronic contribution:      3.687105531       2.999746602      -0.349901708
Nuclear contribution   :     -3.426577570      -3.218867531       0.909877449
                        -----------------------------------------
Total Dipole Moment    :      0.260527961      -0.219120929       0.559975742
                        -----------------------------------------
Magnitude (a.u.)       :      0.655333222
Magnitude (Debye)      :      1.665724672

Rotational constants in cm-1:             0.198968             0.028394             0.027180
Rotational constants in MHz :          5964.922899           851.233142           814.828784

                             ****ORCA TERMINATED NORMALLY****
TOTAL RUN TIME: 0 days 0 hours 0 minutes 10 seconds 578 msec
