                         Program Version 6.0.0  -   RELEASE  -
|  1> ! r2scan-3c def2/J RI DEFGRID2 scfconv6 printgap
|  2> %output
|  3>     printlevel normal
|  4> end
|  5> * xyz 0 1
|  6> C -3.3919295327 0.4993490727 0.6699328019
|  7> C -2.7791849996 -0.6158945892 -0.1696586324
|  8> C -1.3811277605 -0.28123838 -0.6884027599
|  9> C -0.3379767927 -0.202977739 0.4265346985
| 10> C 1.0209558134 0.1608926086 -0.1086674959
| 11> O 1.2274104079 0.8671453493 -1.0730443554
| 12> O 1.9871680454 -0.3804651292 0.6270440334
| 13> C 3.3515388215 -0.1148631626 0.2851309543
| 14> H -4.4185656601 0.252079492 0.9282344731
| 15> H -2.838892089 0.6466919291 1.5936451201
| 16> H -3.393693756 1.434426452 0.1143518256
| 17> H -2.7350875484 -1.5341001243 0.4190528313
| 18> H -3.4246049038 -0.8041502124 -1.0295647143
| 19> H -1.399097286 0.672278295 -1.2196622244
| 20> H -1.0717332556 -1.0466540347 -1.403306141
| 21> H -0.258665411 -1.1448939273 0.9689913582
| 22> H -0.6137678173 0.5783177076 1.1379977546
| 23> H 3.402813518 0.7253081898 -0.4082436389
| 24> H 3.7717332054 -1.0067459506 -0.1780097623
| 25> H 3.8715759569 0.1125466718 1.2123789667
| 26> *
| 27>
| 28>                          ****END OF INPUT****

CARTESIAN COORDINATES (ANGSTROEM)
---------------------------------
  C     -3.391930    0.499349    0.669933
  C     -2.779185   -0.615895   -0.169659
  C     -1.381128   -0.281238   -0.688403
  C     -0.337977   -0.202978    0.426535
  C      1.020956    0.160893   -0.108667
  O      1.227410    0.867145   -1.073044
  O      1.987168   -0.380465    0.627044
  C      3.351539   -0.114863    0.285131
  H     -4.418566    0.252079    0.928234
  H     -2.838892    0.646692    1.593645
  H     -3.393694    1.434426    0.114352
  H     -2.735088   -1.534100    0.419053
  H     -3.424605   -0.804150   -1.029565
  H     -1.399097    0.672278   -1.219662
  H     -1.071733   -1.046654   -1.403306
  H     -0.258665   -1.144894    0.968991
  H     -0.613768    0.578318    1.137998
  H      3.402814    0.725308   -0.408244
  H      3.771733   -1.006746   -0.178010
  H      3.871576    0.112547    1.212379

 Total Charge           Charge          ....    0
 Multiplicity           Mult            ....    1
 Number of Electrons    NEL             ....   64
 Basis Dimension        Dim             ....  222

ORBITAL ENERGIES
----------------

  NO   OCC          E(Eh)            E(eV)
   0   2.0000     -18.998503      -516.9756
   1   2.0000     -18.928908      -515.0818
   2   2.0000     -10.153335      -276.2863
   3   2.0000     -10.084644      -274.4171
   4   2.0000     -10.042066      -273.2585
   5   2.0000     -10.028970      -272.9021
   6   2.0000     -10.028273      -272.8832
   7   2.0000     -10.018567      -272.6191
   8   2.0000      -1.071693       -29.1623
   9   2.0000      -0.976585       -26.5742
  10   2.0000      -0.777065       -21.1450
  11   2.0000      -0.727884       -19.8067
  12   2.0000      -0.684898       -18.6370
  13   2.0000      -0.622799       -16.9472
  14   2.0000      -0.550171       -14.9709
  15   2.0000      -0.525013       -14.2863
  16   2.0000      -0.472929       -12.8691
  17   2.0000      -0.460993       -12.5442
  18   2.0000      -0.440938       -11.9985
  19   2.0000      -0.431333       -11.7372
  20   2.0000      -0.413914       -11.2632
  21   2.0000      -0.394362       -10.7311
  22   2.0000      -0.380233       -10.3467
  23   2.0000      -0.366580        -9.9751
  24   2.0000      -0.347211        -9.4481
  25   2.0000      -0.335750        -9.1362
  26   2.0000      -0.319406        -8.6915
  27   2.0000      -0.301269        -8.1979
  28   2.0000      -0.299962        -8.1624
  29   2.0000      -0.296697        -8.0735
  30   2.0000      -0.272280        -7.4091
  31   2.0000      -0.238442        -6.4883
  32   0.0000      -0.013328        -0.3627
  33   0.0000       0.068352         1.8599
  34   0.0000       0.089999         2.4490
  35   0.0000       0.100068         2.7230
  36   0.0000       0.118623         3.2279

MULLIKEN ATOMIC CHARGES
-----------------------
   0 C :   -0.495518
   1 C :   -0.202684
   2 C :   -0.274122
   3 C :   -0.329158
   4 C :    0.387136
   5 O :   -0.435499
   6 O :   -0.193308
   7 C :   -0.306125
   8 H :    0.148475
   9 H :    0.143566
  10 H :    0.150190
  11 H :    0.130734
  12 H :    0.146344
  13 H :    0.166398
  14 H :    0.143254
  15 H :    0.166170
  16 H :    0.170517
  17 H :    0.187270
  18 H :    0.148825
  19 H :    0.147537
Sum of atomic charges:    0.0000000

LOEWDIN ATOMIC CHARGES
----------------------
   0 C :   -0.425790
   1 C :   -0.315386
   2 C :   -0.288836
   3 C :   -0.228488
   4 C :    0.362028
   5 O :   -0.441470
   6 O :   -0.603655
   7 C :   -0.046886
   8 H :    0.152043
   9 H :    0.147098
  10 H :    0.152157
  11 H :    0.151498
  12 H :    0.154385
  13 H :    0.169472
  14 H :    0.161067
  15 H :    0.179525
  16 H :    0.183058
  17 H :    0.191697
  18 H :    0.172441
  19 H :    0.174043

  Mayer bond orders larger than 0.100000
B(  0-C ,  1-C ) :   0.8882 B(  0-C ,  8-H ) :   0.9696 B(  0-C ,  9-H ) :   0.9832
B(  0-C , 10-H ) :   0.9819 B(  1-C ,  2-C ) :   0.8747 B(  1-C , 11-H ) :   0.9775
B(  1-C , 12-H ) :   0.9732 B(  2-C ,  3-C ) :   0.9097 B(  2-C , 13-H ) :   0.9805
B(  2-C , 14-H ) :   0.9678 B(  3-C ,  4-C ) :   1.0117 B(  3-C , 15-H ) :   0.9701
B(  3-C , 16-H ) :   0.9315 B(  4-C ,  5-O ) :   1.8291 B(  4-C ,  6-O ) :   1.0687
B(  6-O ,  7-C ) :   0.8394 B(  7-C , 17-H ) :   0.9687 B(  7-C , 18-H ) :   0.9620
B(  7-C , 19-H ) :   0.9674

Dispersion correction           -0.004983982
FINAL SINGLE POINT ENERGY      -386.229075572049

DIPOLE MOMENT
-------------

Method             : SCF
Type of density    : Electron Density
Multiplicity       :   1
Irrep              :   0
Energy             :  -386.2362412384385948 Eh
Relativity type    :
Basis              : AO
                                X                 Y                 Z
Electronic contribution:      8.571403747       0.607071162      -1.435589490
Nuclear contribution   :     -8.497141959      -1.038741266       1.997184845
                        -----------------------------------------
Total Dipole Moment    :      0.074261788      -0.431670105       0.561595355
                        -----------------------------------------
Magnitude (a.u.)       :      0.712210106
Magnitude (Debye)      :      1.810294223

Rotational constants in cm-1:             0.196905             0.027083             0.025924
Rotational constants in MHz :          5903.072834           811.920747           777.193537

                             ****ORCA TERMINATED NORMALLY****
TOTAL RUN TIME: 0 days 0 hours 0 minutes 25 seconds 165 msec
