                         Program Version 6.0.0  -   RELEASE  -
|  1> ! r2scan-3c def2/J RI DEFGRID2 scfconv6 printgap
|  2> %output
|  3>     printlevel normal
|  4> end
|  5> %cpcm
|  6>     smd true
|  7>     smdsolvent "water"
|  8> end
|  9> * xyz 0 1
| 10> C -3.3919295327 0.4993490727 0.6699328019
| 11> C -2.7791849996 -0.6158945892 -0.1696586324
| 12> C -1.3811277605 -0.28123838 -0.6884027599
| 13> C -0.3379767927 -0.202977739 0.4265346985
| 14> C 1.0209558134 0.1608926086 -0.1086674959
| 15> O 1.2274104079 0.8671453493 -1.0730443554
| 16> O 1.9871680454 -0.3804651292 0.6270440334
| 17> C 3.3515388215 -0.1148631626 0.2851309543
| 18> H -4.4185656601 0.252079492 0.9282344731
| 19> H -2.838892089 0.6466919291 1.5936451201
| 20> H -3.393693756 1.434426452 0.1143518256
| 21> H -2.7350875484 -1.5341001243 0.4190528313
| 22> H -3.4246049038 -0.8041502124 -1.0295647143
| 23> H -1.399097286 0.672278295 -1.2196622244
| 24> H -1.0717332556 -1.0466540347 -1.403306141
| 25> H -0.258665411 -1.1448939273 0.9689913582
| 26> H -0.6137678173 0.5783177076 1.1379977546
| 27> H 3.402813518 0.7253081898 -0.4082436389
| 28> H 3.7717332054 -1.0067459506 -0.1780097623
| 29> H 3.8715759569 0.1125466718 1.2123789667
| 30> *
| 31>
| 32>                          ****END OF INPUT****

CARTESIAN COORDINATES (ANGSTROEM)
---------------------------------
  C     -3.391930    0.499349    0.669933
  C     -2.779185   -0.615895   -0.169659
  C     -1.381128   -0.281238   -0.688403
  C     -0.337977   -0.202978    0.426535
  C      1.020956    0.160893   -0.108667
  O      1.227410    0.867145   -1.073044
  O      1.987168   -0.380465    0.627044
  C      3.351539   -0.114863    0.285131
  H     -4.418566    0.252079    0.928234
  H     -2.838892    0.646692    1.593645
  H     -3.393694    1.434426    0.114352
  H     -2.735088   -1.534100    0.419053
  H     -3.424605   -0.804150   -1.029565
  H     -1.399097    0.672278   -1.219662
  H     -1.071733   -1.046654   -1.403306
  H     -0.258665   -1.144894    0.968991
  H     -0.613768    0.578318    1.137998
  H      3.402814    0.725308   -0.408244
  H      3.771733   -1.006746   -0.178010
  H      3.871576    0.112547    1.212379

 Total Charge           Charge          ....    0
 Multiplicity           Mult            ....    1
 Number of Electrons    NEL             ....   64
 Basis Dimension        Dim             ....  222

ORBITAL ENERGIES
----------------

  NO   OCC          E(Eh)            E(eV)
   0   2.0000     -19.003527      -517.1123
   1   2.0000     -18.943422      -515.4767
   2   2.0000     -10.162747      -276.5424
   3   2.0000     -10.074687      -274.1462
   4   2.0000     -10.035148      -273.0703
   5   2.0000     -10.023160      -272.7440
   6   2.0000     -10.018815      -272.6258
   7   2.0000     -10.008082      -272.3338
   8   2.0000      -1.078132       -29.3375
   9   2.0000      -0.989104       -26.9149
  10   2.0000      -0.770683       -20.9713
  11   2.0000      -0.722389       -19.6572
  12   2.0000      -0.678019       -18.4498
  13   2.0000      -0.615100       -16.7377
  14   2.0000      -0.543870       -14.7995
  15   2.0000      -0.522058       -14.2059
  16   2.0000      -0.473029       -12.8718
  17   2.0000      -0.460379       -12.5276
  18   2.0000      -0.451367       -12.2823
  19   2.0000      -0.424065       -11.5394
  20   2.0000      -0.405830       -11.0432
  21   2.0000      -0.391538       -10.6543
  22   2.0000      -0.376726       -10.2512
  23   2.0000      -0.360123        -9.7994
  24   2.0000      -0.343196        -9.3388
  25   2.0000      -0.329358        -8.9623
  26   2.0000      -0.319976        -8.7070
  27   2.0000      -0.294959        -8.0262
  28   2.0000      -0.292423        -7.9572
  29   2.0000      -0.288874        -7.8607
  30   2.0000      -0.278353        -7.5744
  31   2.0000      -0.253465        -6.8971
  32   0.0000      -0.020172        -0.5489
  33   0.0000       0.073493         1.9999
  34   0.0000       0.098236         2.6731
  35   0.0000       0.109175         2.9708
  36   0.0000       0.128406         3.4941

MULLIKEN ATOMIC CHARGES
-----------------------
   0 C :   -0.531633
   1 C :   -0.224695
   2 C :   -0.285391
   3 C :   -0.344163
   4 C :    0.428314
   5 O :   -0.518909
   6 O :   -0.211410
   7 C :   -0.322725
   8 H :    0.157823
   9 H :    0.159512
  10 H :    0.157572
  11 H :    0.144382
  12 H :    0.155142
  13 H :    0.157542
  14 H :    0.158516
  15 H :    0.182776
  16 H :    0.203045
  17 H :    0.183794
  18 H :    0.176390
  19 H :    0.174119
Sum of atomic charges:    0.0000000

LOEWDIN ATOMIC CHARGES
----------------------
   0 C :   -0.433372
   1 C :   -0.314879
   2 C :   -0.291953
   3 C :   -0.225415
   4 C :    0.372625
   5 O :   -0.501919
   6 O :   -0.606609
   7 C :   -0.041900
   8 H :    0.153940
   9 H :    0.152160
  10 H :    0.153640
  11 H :    0.155980
  12 H :    0.156627
  13 H :    0.165038
  14 H :    0.163809
  15 H :    0.187820
  16 H :    0.195015
  17 H :    0.190722
  18 H :    0.183105
  19 H :    0.185567

  Mayer bond orders larger than 0.100000
B(  0-C ,  1-C ) :   0.8830 B(  0-C ,  8-H ) :   0.9678 B(  0-C ,  9-H ) :   0.9784
B(  0-C , 10-H ) :   0.9799 B(  1-C ,  2-C ) :   0.8794 B(  1-C , 11-H ) :   0.9785
B(  1-C , 12-H ) :   0.9732 B(  2-C ,  3-C ) :   0.8975 B(  2-C , 13-H ) :   0.9778
B(  2-C , 14-H ) :   0.9683 B(  3-C ,  4-C ) :   1.0124 B(  3-C , 15-H ) :   0.9606
B(  3-C , 16-H ) :   0.9206 B(  4-C ,  5-O ) :   1.7687 B(  4-C ,  6-O ) :   1.0925
B(  6-O ,  7-C ) :   0.8261 B(  7-C , 17-H ) :   0.9649 B(  7-C , 18-H ) :   0.9534
B(  7-C , 19-H ) :   0.9578

Dispersion correction           -0.004983982
FINAL SINGLE POINT ENERGY      -386.233306047207

DIPOLE MOMENT
-------------

Method             : SCF
Type of density    : Electron Density
Multiplicity       :   1
Irrep              :   0
Energy             :  -386.2404717135966052 Eh
Relativity type    :
Basis              : AO
                                X                 Y                 Z
Electronic contribution:      8.600854462       0.397590648      -1.126286350
Nuclear contribution   :     -8.497141959      -1.038741266       1.997184845
                        -----------------------------------------
Total Dipole Moment    :      0.103712504      -0.641150618       0.870898495
                        -----------------------------------------
Magnitude (a.u.)       :      1.086413635
Magnitude (Debye)      :      2.761444005

Rotational constants in cm-1:             0.196905             0.027083             0.025924
Rotational constants in MHz :          5903.072834           811.920747           777.193537

                             ****ORCA TERMINATED NORMALLY****
TOTAL RUN TIME: 0 days 0 hours 0 minutes 33 seconds 153 msec
