                         Program Version 6.0.0  -   RELEASE  -
|  1> ! pbe def2-sv(p) def2/J RI DEFGRID1 loosescf d4 GCP(DFT/SV(P)) printgap
|  2> %output
|  3>     printlevel normal
|  4> end
|  5> * xyz 0 1
|  6> C -2.6225599993 -1.2405762414 -0.366036701
|  7> C -2.5751900412 0.2022736565 0.1221743486
|  8> C -1.267224886 0.5058190053 0.8554378486
|  9> C -0.0892445981 0.4983814785 -0.08482187
| 10> O -0.0815874071 0.9726019309 -1.2023980754
| 11> O 0.970294518 -0.0815493483 0.4628294527
| 12> C 2.1843550027 -0.1280785045 -0.3061490022
| 13> C 3.2924201191 -0.6496298984 0.5878682882
| 14> H -1.8140433183 -1.427540669 -1.0705039557
| 15> H -2.5209499775 -1.9307775564 0.4681387461
| 16> H -3.5654964397 -1.4401548427 -0.868119125
| 17> H -3.4108578265 0.3885295429 0.7970503654
| 18> H -2.6616779127 0.8789939116 -0.7299000238
| 19> H -1.0794483215 -0.2145126326 1.6510315503
| 20> H -1.3160224005 1.5054968551 1.292638753
| 21> H 2.0191919035 -0.781227397 -1.1693401265
| 22> H 2.3980105495 0.8796211679 -0.6776405814
| 23> H 3.0377963455 -1.6394003859 0.9548015224
| 24> H 4.2158631372 -0.7032613063 0.0208626109
| 25> H 3.4300523295 0.0138982332 1.4364332598
| 26> *
| 27>
| 28>                          ****END OF INPUT****

CARTESIAN COORDINATES (ANGSTROEM)
---------------------------------
  C     -2.622560   -1.240576   -0.366037
  C     -2.575190    0.202274    0.122174
  C     -1.267225    0.505819    0.855438
  C     -0.089245    0.498381   -0.084822
  O     -0.081587    0.972602   -1.202398
  O      0.970295   -0.081549    0.462829
  C      2.184355   -0.128079   -0.306149
  C      3.292420   -0.649630    0.587868
  H     -1.814043   -1.427541   -1.070504
  H     -2.520950   -1.930778    0.468139
  H     -3.565496   -1.440155   -0.868119
  H     -3.410858    0.388530    0.797050
  H     -2.661678    0.878994   -0.729900
  H     -1.079448   -0.214513    1.651032
  H     -1.316022    1.505497    1.292639
  H      2.019192   -0.781227   -1.169340
  H      2.398011    0.879621   -0.677641
  H      3.037796   -1.639400    0.954802
  H      4.215863   -0.703261    0.020863
  H      3.430052    0.013898    1.436433

 Total Charge           Charge          ....    0
 Multiplicity           Mult            ....    1
 Number of Electrons    NEL             ....   64
 Basis Dimension        Dim             ....  136

ORBITAL ENERGIES
----------------

  NO   OCC          E(Eh)            E(eV)
   0   2.0000     -18.797621      -511.5093
   1   2.0000     -18.730817      -509.6914
   2   2.0000     -10.003989      -272.2224
   3   2.0000      -9.946921      -270.6695
   4   2.0000      -9.896297      -269.2919
   5   2.0000      -9.889648      -269.1110
   6   2.0000      -9.888365      -269.0761
   7   2.0000      -9.875123      -268.7157
   8   2.0000      -1.004355       -27.3299
   9   2.0000      -0.907506       -24.6945
  10   2.0000      -0.726595       -19.7716
  11   2.0000      -0.699964       -19.0470
  12   2.0000      -0.636332       -17.3155
  13   2.0000      -0.582825       -15.8595
  14   2.0000      -0.530197       -14.4274
  15   2.0000      -0.502176       -13.6649
  16   2.0000      -0.450651       -12.2628
  17   2.0000      -0.443416       -12.0660
  18   2.0000      -0.412914       -11.2360
  19   2.0000      -0.405252       -11.0275
  20   2.0000      -0.387078       -10.5329
  21   2.0000      -0.364971        -9.9314
  22   2.0000      -0.361363        -9.8332
  23   2.0000      -0.350926        -9.5492
  24   2.0000      -0.346915        -9.4400
  25   2.0000      -0.320882        -8.7316
  26   2.0000      -0.307653        -8.3717
  27   2.0000      -0.296248        -8.0613
  28   2.0000      -0.295485        -8.0406
  29   2.0000      -0.290967        -7.9176
  30   2.0000      -0.256510        -6.9800
  31   2.0000      -0.216771        -5.8986
  32   0.0000      -0.019233        -0.5233
  33   0.0000       0.037755         1.0274
  34   0.0000       0.051224         1.3939
  35   0.0000       0.076333         2.0771
  36   0.0000       0.079809         2.1717

MULLIKEN ATOMIC CHARGES
-----------------------
   0 C :   -0.291087
   1 C :   -0.187098
   2 C :   -0.134165
   3 C :    0.092711
   4 O :   -0.215060
   5 O :   -0.236532
   6 C :   -0.030659
   7 C :   -0.271544
   8 H :    0.115306
   9 H :    0.097073
  10 H :    0.107002
  11 H :    0.087953
  12 H :    0.107312
  13 H :    0.094170
  14 H :    0.115239
  15 H :    0.103646
  16 H :    0.106305
  17 H :    0.114280
  18 H :    0.110844
  19 H :    0.114304
Sum of atomic charges:    0.0000000

LOEWDIN ATOMIC CHARGES
----------------------
   0 C :   -0.342435
   1 C :   -0.229627
   2 C :   -0.248866
   3 C :    0.034991
   4 O :   -0.171764
   5 O :   -0.069815
   6 C :   -0.108997
   7 C :   -0.350657
   8 H :    0.120754
   9 H :    0.116035
  10 H :    0.121414
  11 H :    0.117347
  12 H :    0.125324
  13 H :    0.127629
  14 H :    0.143914
  15 H :    0.115591
  16 H :    0.116397
  17 H :    0.126332
  18 H :    0.130105
  19 H :    0.126328

  Mayer bond orders larger than 0.100000
B(  0-C ,  1-C ) :   1.1550 B(  0-C ,  8-H ) :   0.9509 B(  0-C ,  9-H ) :   0.9538
B(  0-C , 10-H ) :   0.9527 B(  1-C ,  2-C ) :   1.1141 B(  1-C , 11-H ) :   0.9268
B(  1-C , 12-H ) :   0.9168 B(  2-C ,  3-C ) :   1.0253 B(  2-C , 13-H ) :   0.9115
B(  2-C , 14-H ) :   0.8884 B(  3-C ,  4-O ) :   2.0365 B(  3-C ,  5-O ) :   1.2206
B(  5-O ,  6-C ) :   0.9119 B(  6-C ,  7-C ) :   1.1510 B(  6-C , 15-H ) :   0.9341
B(  6-C , 16-H ) :   0.9285 B(  7-C , 17-H ) :   0.9492 B(  7-C , 18-H ) :   0.9446
B(  7-C , 19-H ) :   0.9507

Dispersion correction           -0.014779819
FINAL SINGLE POINT ENERGY      -385.458730706833

DIPOLE MOMENT
-------------

Method             : SCF
Type of density    : Electron Density
Multiplicity       :   1
Irrep              :   0
Energy             :  -385.5337697527396017 Eh
Relativity type    :
Basis              : AO
                                X                 Y                 Z
Electronic contribution:      1.501581077       3.860010333      -1.412615078
Nuclear contribution   :     -1.176025259      -4.180706828       1.964299439
                        -----------------------------------------
Total Dipole Moment    :      0.325555819      -0.320696494       0.551684362
                        -----------------------------------------
Magnitude (a.u.)       :      0.716371738
Magnitude (Debye)      :      1.820872252

Rotational constants in cm-1:             0.146501             0.032097             0.030775
Rotational constants in MHz :          4391.978988           962.253650           922.602387

                             ****ORCA TERMINATED NORMALLY****
TOTAL RUN TIME: 0 days 0 hours 0 minutes 10 seconds 708 msec
