                         Program Version 6.0.0  -   RELEASE  -
|  1> ! r2scan-3c def2/J RI DEFGRID2 scfconv6 printgap
|  2> %output
|  3>     printlevel normal
|  4> end
|  5> * xyz 0 1
|  6> C -3.3375839504 -1.093938791 0.2695969573
|  7> C -1.9741647698 -0.489597072 0.5795451176
|  8> C -1.3398150614 0.1215099458 -0.6789169009
|  9> C 7.68399e-05 0.7089907984 -0.3286872323
| 10> O 0.2061202026 1.8819474235 -0.0886211097
| 11> O 0.9425566374 -0.2200016432 -0.2714952012
| 12> C 2.26795544 0.1849984495 0.1111004745
| 13> C 3.0914577798 -1.0634108732 0.3620532452
| 14> H -4.0134420408 -0.3337561956 -0.1136167542
| 15> H -3.2444711491 -1.8806246279 -0.4745288667
| 16> H -3.7715354834 -1.5189594567 1.1704496079
| 17> H -1.3089108455 -1.2605421024 0.9720590998
| 18> H -2.0779497857 0.2881640311 1.339136235
| 19> H -1.9771298885 0.9139951123 -1.0698672767
| 20> H -1.2012452275 -0.6555095385 -1.4297241093
| 21> H 2.6879219756 0.7897147972 -0.6992573178
| 22> H 2.1943704157 0.8146992965 1.0038458615
| 23> H 4.1024947682 -0.7780417028 0.6327938868
| 24> H 2.6547829325 -1.6436564829 1.1694393189
| 25> H 3.1184809711 -1.6754760721 -0.534380484
| 26> *
| 27>
| 28>                          ****END OF INPUT****

CARTESIAN COORDINATES (ANGSTROEM)
---------------------------------
  C     -3.337584   -1.093939    0.269597
  C     -1.974165   -0.489597    0.579545
  C     -1.339815    0.121510   -0.678917
  C      0.000077    0.708991   -0.328687
  O      0.206120    1.881947   -0.088621
  O      0.942557   -0.220002   -0.271495
  C      2.267955    0.184998    0.111100
  C      3.091458   -1.063411    0.362053
  H     -4.013442   -0.333756   -0.113617
  H     -3.244471   -1.880625   -0.474529
  H     -3.771535   -1.518959    1.170450
  H     -1.308911   -1.260542    0.972059
  H     -2.077950    0.288164    1.339136
  H     -1.977130    0.913995   -1.069867
  H     -1.201245   -0.655510   -1.429724
  H      2.687922    0.789715   -0.699257
  H      2.194370    0.814699    1.003846
  H      4.102495   -0.778042    0.632794
  H      2.654783   -1.643656    1.169439
  H      3.118481   -1.675476   -0.534380

 Total Charge           Charge          ....    0
 Multiplicity           Mult            ....    1
 Number of Electrons    NEL             ....   64
 Basis Dimension        Dim             ....  222

ORBITAL ENERGIES
----------------

  NO   OCC          E(Eh)            E(eV)
   0   2.0000     -18.995567      -516.8956
   1   2.0000     -18.924989      -514.9751
   2   2.0000     -10.149027      -276.1691
   3   2.0000     -10.091166      -274.5946
   4   2.0000     -10.040216      -273.2082
   5   2.0000     -10.038792      -273.1694
   6   2.0000     -10.032202      -272.9901
   7   2.0000     -10.023729      -272.7595
   8   2.0000      -1.070810       -29.1382
   9   2.0000      -0.971950       -26.4481
  10   2.0000      -0.775867       -21.1124
  11   2.0000      -0.743064       -20.2198
  12   2.0000      -0.681225       -18.5371
  13   2.0000      -0.613695       -16.6995
  14   2.0000      -0.568662       -15.4741
  15   2.0000      -0.534150       -14.5350
  16   2.0000      -0.465010       -12.6536
  17   2.0000      -0.461016       -12.5449
  18   2.0000      -0.446455       -12.1487
  19   2.0000      -0.422771       -11.5042
  20   2.0000      -0.406152       -11.0520
  21   2.0000      -0.381378       -10.3778
  22   2.0000      -0.376417       -10.2428
  23   2.0000      -0.367489        -9.9999
  24   2.0000      -0.358699        -9.7607
  25   2.0000      -0.336075        -9.1451
  26   2.0000      -0.330791        -9.0013
  27   2.0000      -0.315798        -8.5933
  28   2.0000      -0.310230        -8.4418
  29   2.0000      -0.306665        -8.3448
  30   2.0000      -0.269643        -7.3374
  31   2.0000      -0.230225        -6.2647
  32   0.0000      -0.013192        -0.3590
  33   0.0000       0.074763         2.0344
  34   0.0000       0.094438         2.5698
  35   0.0000       0.104932         2.8553
  36   0.0000       0.120520         3.2795

MULLIKEN ATOMIC CHARGES
-----------------------
   0 C :   -0.474434
   1 C :   -0.231958
   2 C :   -0.343152
   3 C :    0.409169
   4 O :   -0.424607
   5 O :   -0.172021
   6 C :   -0.147806
   7 C :   -0.442946
   8 H :    0.146396
   9 H :    0.144845
  10 H :    0.150544
  11 H :    0.149927
  12 H :    0.151862
  13 H :    0.163462
  14 H :    0.155055
  15 H :    0.151434
  16 H :    0.162897
  17 H :    0.147424
  18 H :    0.151764
  19 H :    0.152145
Sum of atomic charges:   -0.0000000

LOEWDIN ATOMIC CHARGES
----------------------
   0 C :   -0.419685
   1 C :   -0.288115
   2 C :   -0.230086
   3 C :    0.353489
   4 O :   -0.426508
   5 O :   -0.600401
   6 C :    0.034058
   7 C :   -0.387153
   8 H :    0.151566
   9 H :    0.150646
  10 H :    0.153019
  11 H :    0.159163
  12 H :    0.159847
  13 H :    0.176976
  14 H :    0.176034
  15 H :    0.176825
  16 H :    0.182681
  17 H :    0.159563
  18 H :    0.158739
  19 H :    0.159342

  Mayer bond orders larger than 0.100000
B(  0-C ,  1-C ) :   0.8956 B(  0-C ,  8-H ) :   0.9828 B(  0-C ,  9-H ) :   0.9858
B(  0-C , 10-H ) :   0.9721 B(  1-C ,  2-C ) :   0.9246 B(  1-C , 11-H ) :   0.9641
B(  1-C , 12-H ) :   0.9576 B(  2-C ,  3-C ) :   0.9632 B(  2-C , 13-H ) :   0.9795
B(  2-C , 14-H ) :   0.9811 B(  3-C ,  4-O ) :   1.8267 B(  3-C ,  5-O ) :   1.0456
B(  5-O ,  6-C ) :   0.8084 B(  6-C ,  7-C ) :   0.9404 B(  6-C , 15-H ) :   0.9504
B(  6-C , 16-H ) :   0.9573 B(  7-C , 17-H ) :   0.9685 B(  7-C , 18-H ) :   0.9738
B(  7-C , 19-H ) :   0.9701

Dispersion correction           -0.004875957
FINAL SINGLE POINT ENERGY      -386.235565486054

DIPOLE MOMENT
-------------

Method             : SCF
Type of density    : Electron Density
Multiplicity       :   1
Irrep              :   0
Energy             :  -386.2422695183750534 Eh
Relativity type    :
Basis              : AO
                                X                 Y                 Z
Electronic contribution:      2.801121007       5.586143379      -1.810741386
Nuclear contribution   :     -2.644202181      -6.486226659       1.839423474
                        -----------------------------------------
Total Dipole Moment    :      0.156918826      -0.900083280       0.028682088
                        -----------------------------------------
Magnitude (a.u.)       :      0.914109452
Magnitude (Debye)      :      2.323481577

Rotational constants in cm-1:             0.124453             0.032695             0.027723
Rotational constants in MHz :          3730.994645           980.181663           831.104800

                             ****ORCA TERMINATED NORMALLY****
TOTAL RUN TIME: 0 days 0 hours 0 minutes 30 seconds 430 msec
