                         Program Version 6.0.0  -   RELEASE  -
|  1> ! r2scan-3c def2/J RI DEFGRID2 scfconv6 printgap
|  2> %output
|  3>     printlevel normal
|  4> end
|  5> %cpcm
|  6>     smd true
|  7>     smdsolvent "water"
|  8> end
|  9> * xyz 0 1
| 10> C -3.3375839504 -1.093938791 0.2695969573
| 11> C -1.9741647698 -0.489597072 0.5795451176
| 12> C -1.3398150614 0.1215099458 -0.6789169009
| 13> C 7.68399e-05 0.7089907984 -0.3286872323
| 14> O 0.2061202026 1.8819474235 -0.0886211097
| 15> O 0.9425566374 -0.2200016432 -0.2714952012
| 16> C 2.26795544 0.1849984495 0.1111004745
| 17> C 3.0914577798 -1.0634108732 0.3620532452
| 18> H -4.0134420408 -0.3337561956 -0.1136167542
| 19> H -3.2444711491 -1.8806246279 -0.4745288667
| 20> H -3.7715354834 -1.5189594567 1.1704496079
| 21> H -1.3089108455 -1.2605421024 0.9720590998
| 22> H -2.0779497857 0.2881640311 1.339136235
| 23> H -1.9771298885 0.9139951123 -1.0698672767
| 24> H -1.2012452275 -0.6555095385 -1.4297241093
| 25> H 2.6879219756 0.7897147972 -0.6992573178
| 26> H 2.1943704157 0.8146992965 1.0038458615
| 27> H 4.1024947682 -0.7780417028 0.6327938868
| 28> H 2.6547829325 -1.6436564829 1.1694393189
| 29> H 3.1184809711 -1.6754760721 -0.534380484
| 30> *
| 31>
| 32>                          ****END OF INPUT****

CARTESIAN COORDINATES (ANGSTROEM)
---------------------------------
  C     -3.337584   -1.093939    0.269597
  C     -1.974165   -0.489597    0.579545
  C     -1.339815    0.121510   -0.678917
  C      0.000077    0.708991   -0.328687
  O      0.206120    1.881947   -0.088621
  O      0.942557   -0.220002   -0.271495
  C      2.267955    0.184998    0.111100
  C      3.091458   -1.063411    0.362053
  H     -4.013442   -0.333756   -0.113617
  H     -3.244471   -1.880625   -0.474529
  H     -3.771535   -1.518959    1.170450
  H     -1.308911   -1.260542    0.972059
  H     -2.077950    0.288164    1.339136
  H     -1.977130    0.913995   -1.069867
  H     -1.201245   -0.655510   -1.429724
  H      2.687922    0.789715   -0.699257
  H      2.194370    0.814699    1.003846
  H      4.102495   -0.778042    0.632794
  H      2.654783   -1.643656    1.169439
  H      3.118481   -1.675476   -0.534380

 Total Charge           Charge          ....    0
 Multiplicity           Mult            ....    1
 Number of Electrons    NEL             ....   64
 Basis Dimension        Dim             ....  222

ORBITAL ENERGIES
----------------

  NO   OCC          E(Eh)            E(eV)
   0   2.0000     -19.002206      -517.0763
   1   2.0000     -18.942966      -515.4643
   2   2.0000     -10.161274      -276.5023
   3   2.0000     -10.083965      -274.3986
   4   2.0000     -10.034917      -273.0640
   5   2.0000     -10.030227      -272.9363
   6   2.0000     -10.018812      -272.6257
   7   2.0000     -10.011939      -272.4387
   8   2.0000      -1.079336       -29.3702
   9   2.0000      -0.987637       -26.8750
  10   2.0000      -0.770494       -20.9662
  11   2.0000      -0.734915       -19.9981
  12   2.0000      -0.674082       -18.3427
  13   2.0000      -0.606941       -16.5157
  14   2.0000      -0.560579       -15.2541
  15   2.0000      -0.533117       -14.5068
  16   2.0000      -0.468558       -12.7501
  17   2.0000      -0.459159       -12.4944
  18   2.0000      -0.449473       -12.2308
  19   2.0000      -0.425628       -11.5819
  20   2.0000      -0.401887       -10.9359
  21   2.0000      -0.378116       -10.2891
  22   2.0000      -0.364737        -9.9250
  23   2.0000      -0.362980        -9.8772
  24   2.0000      -0.349831        -9.5194
  25   2.0000      -0.329429        -8.9642
  26   2.0000      -0.326866        -8.8945
  27   2.0000      -0.313905        -8.5418
  28   2.0000      -0.304417        -8.2836
  29   2.0000      -0.300677        -8.1818
  30   2.0000      -0.276141        -7.5142
  31   2.0000      -0.248050        -6.7498
  32   0.0000      -0.022851        -0.6218
  33   0.0000       0.077711         2.1146
  34   0.0000       0.103840         2.8256
  35   0.0000       0.115727         3.1491
  36   0.0000       0.127357         3.4656

MULLIKEN ATOMIC CHARGES
-----------------------
   0 C :   -0.518651
   1 C :   -0.218240
   2 C :   -0.369475
   3 C :    0.455880
   4 O :   -0.513809
   5 O :   -0.186767
   6 C :   -0.150490
   7 C :   -0.490995
   8 H :    0.158890
   9 H :    0.159251
  10 H :    0.162271
  11 H :    0.158049
  12 H :    0.157161
  13 H :    0.175990
  14 H :    0.178664
  15 H :    0.172180
  16 H :    0.170862
  17 H :    0.169008
  18 H :    0.165610
  19 H :    0.164609
Sum of atomic charges:   -0.0000000

LOEWDIN ATOMIC CHARGES
----------------------
   0 C :   -0.424936
   1 C :   -0.285390
   2 C :   -0.228194
   3 C :    0.363010
   4 O :   -0.490507
   5 O :   -0.600732
   6 C :    0.036418
   7 C :   -0.389931
   8 H :    0.154853
   9 H :    0.154851
  10 H :    0.156356
  11 H :    0.162043
  12 H :    0.161334
  13 H :    0.181749
  14 H :    0.186155
  15 H :    0.183635
  16 H :    0.185885
  17 H :    0.168263
  18 H :    0.162377
  19 H :    0.162763

  Mayer bond orders larger than 0.100000
B(  0-C ,  1-C ) :   0.8875 B(  0-C ,  8-H ) :   0.9806 B(  0-C ,  9-H ) :   0.9827
B(  0-C , 10-H ) :   0.9688 B(  1-C ,  2-C ) :   0.9154 B(  1-C , 11-H ) :   0.9609
B(  1-C , 12-H ) :   0.9565 B(  2-C ,  3-C ) :   0.9578 B(  2-C , 13-H ) :   0.9796
B(  2-C , 14-H ) :   0.9688 B(  3-C ,  4-O ) :   1.7532 B(  3-C ,  5-O ) :   1.0761
B(  5-O ,  6-C ) :   0.7945 B(  6-C ,  7-C ) :   0.9424 B(  6-C , 15-H ) :   0.9415
B(  6-C , 16-H ) :   0.9509 B(  7-C , 17-H ) :   0.9621 B(  7-C , 18-H ) :   0.9720
B(  7-C , 19-H ) :   0.9675

Dispersion correction           -0.004875957
FINAL SINGLE POINT ENERGY      -386.241293809997

DIPOLE MOMENT
-------------

Method             : SCF
Type of density    : Electron Density
Multiplicity       :   1
Irrep              :   0
Energy             :  -386.2479978423189095 Eh
Relativity type    :
Basis              : AO
                                X                 Y                 Z
Electronic contribution:      2.839665796       5.243579068      -1.838951869
Nuclear contribution   :     -2.644202181      -6.486226659       1.839423474
                        -----------------------------------------
Total Dipole Moment    :      0.195463615      -1.242647591       0.000471605
                        -----------------------------------------
Magnitude (a.u.)       :      1.257926581
Magnitude (Debye)      :      3.197395268

Rotational constants in cm-1:             0.124453             0.032695             0.027723
Rotational constants in MHz :          3730.994645           980.181663           831.104800

                             ****ORCA TERMINATED NORMALLY****
TOTAL RUN TIME: 0 days 0 hours 0 minutes 36 seconds 926 msec
