                         Program Version 6.0.0  -   RELEASE  -
|  1> ! r2scan-3c def2/J RI DEFGRID2 scfconv6 printgap
|  2> %output
|  3>     printlevel normal
|  4> end
|  5> * xyz 0 1
|  6> C -0.0421918327 0.9038657197 0.2836350228
|  7> C -0.8640066021 -0.3757684519 0.257816835
|  8> Cl -2.4950487907 -0.0541342449 -0.4202141064
|  9> C 1.3379926766 0.6683905644 0.8740577923
| 10> Cl 2.3130096326 -0.4317635067 -0.1683743347
| 11> H 0.0498180911 1.2989838017 -0.7287098088
| 12> H -0.5486649936 1.6494808434 0.8984241826
| 13> H -0.4065048652 -1.1301090988 -0.3800499265
| 14> H -1.0186073859 -0.7736047678 1.2592702913
| 15> H 1.282847898 0.1904641237 1.8499389053
| 16> H 1.898780725 1.5980898305 0.9365469301
| 17> *
| 18>
| 19>                          ****END OF INPUT****

CARTESIAN COORDINATES (ANGSTROEM)
---------------------------------
  C     -0.042192    0.903866    0.283635
  C     -0.864007   -0.375768    0.257817
  Cl    -2.495049   -0.054134   -0.420214
  C      1.337993    0.668391    0.874058
  Cl     2.313010   -0.431764   -0.168374
  H      0.049818    1.298984   -0.728710
  H     -0.548665    1.649481    0.898424
  H     -0.406505   -1.130109   -0.380050
  H     -1.018607   -0.773605    1.259270
  H      1.282848    0.190464    1.849939
  H      1.898781    1.598090    0.936547

 Total Charge           Charge          ....    0
 Multiplicity           Mult            ....    1
 Number of Electrons    NEL             ....   58
 Basis Dimension        Dim             ....  141

ORBITAL ENERGIES
----------------

  NO   OCC          E(Eh)            E(eV)
   0   2.0000    -101.211521     -2754.1055
   1   2.0000    -101.205542     -2753.9428
   2   2.0000     -10.109310      -275.0883
   3   2.0000     -10.100466      -274.8477
   4   2.0000     -10.062775      -273.8220
   5   2.0000      -9.367473      -254.9019
   6   2.0000      -9.361489      -254.7391
   7   2.0000      -7.113729      -193.5744
   8   2.0000      -7.107798      -193.4130
   9   2.0000      -7.103538      -193.2971
  10   2.0000      -7.103459      -193.2950
  11   2.0000      -7.097511      -193.1331
  12   2.0000      -7.097461      -193.1317
  13   2.0000      -0.845015       -22.9940
  14   2.0000      -0.816699       -22.2235
  15   2.0000      -0.733426       -19.9575
  16   2.0000      -0.641603       -17.4589
  17   2.0000      -0.577902       -15.7255
  18   2.0000      -0.472462       -12.8563
  19   2.0000      -0.453280       -12.3344
  20   2.0000      -0.426132       -11.5956
  21   2.0000      -0.406373       -11.0580
  22   2.0000      -0.370564       -10.0835
  23   2.0000      -0.362067        -9.8524
  24   2.0000      -0.346056        -9.4167
  25   2.0000      -0.286101        -7.7852
  26   2.0000      -0.277900        -7.5621
  27   2.0000      -0.271336        -7.3834
  28   2.0000      -0.264967        -7.2101
  29   0.0000      -0.005867        -0.1596
  30   0.0000      -0.000294        -0.0080
  31   0.0000       0.093983         2.5574
  32   0.0000       0.099189         2.6991
  33   0.0000       0.119855         3.2614

MULLIKEN ATOMIC CHARGES
-----------------------
   0 C :   -0.273527
   1 C :   -0.166117
   2 Cl:   -0.191852
   3 C :   -0.161555
   4 Cl:   -0.201034
   5 H :    0.170391
   6 H :    0.158713
   7 H :    0.180849
   8 H :    0.156794
   9 H :    0.155081
  10 H :    0.172257
Sum of atomic charges:    0.0000000

LOEWDIN ATOMIC CHARGES
----------------------
   0 C :   -0.347082
   1 C :   -0.329577
   2 Cl:    0.006890
   3 C :   -0.316166
   4 Cl:   -0.000020
   5 H :    0.170638
   6 H :    0.169304
   7 H :    0.166027
   8 H :    0.157813
   9 H :    0.159454
  10 H :    0.162719

  Mayer bond orders larger than 0.100000
B(  0-C ,  1-C ) :   0.9473 B(  0-C ,  3-C ) :   0.9157 B(  0-C ,  5-H ) :   0.9594
B(  0-C ,  6-H ) :   0.9481 B(  1-C ,  2-Cl) :   0.9811 B(  1-C ,  7-H ) :   0.9506
B(  1-C ,  8-H ) :   0.9580 B(  3-C ,  4-Cl) :   0.9666 B(  3-C ,  9-H ) :   0.9612
B(  3-C , 10-H ) :   0.9532

Dispersion correction           -0.002853935
FINAL SINGLE POINT ENERGY     -1038.248982749665

DIPOLE MOMENT
-------------

Method             : SCF
Type of density    : Electron Density
Multiplicity       :   1
Irrep              :   0
Energy             : -1038.2560007787712948 Eh
Relativity type    :
Basis              : AO
                                X                 Y                 Z
Electronic contribution:     -1.134493971      -2.888007909      -3.679607377
Nuclear contribution   :      1.424245531       3.310303441       4.388294210
                        -----------------------------------------
Total Dipole Moment    :      0.289751560       0.422295532       0.708686833
                        -----------------------------------------
Magnitude (a.u.)       :      0.874372066
Magnitude (Debye)      :      2.222477169

Rotational constants in cm-1:             0.308663             0.036445             0.034088
Rotational constants in MHz :          9253.482664          1092.600258          1021.942910

                             ****ORCA TERMINATED NORMALLY****
TOTAL RUN TIME: 0 days 0 hours 0 minutes 16 seconds 575 msec
