                         Program Version 6.0.0  -   RELEASE  -
|  1> ! r2scan-3c def2/J RI DEFGRID2 scfconv6 printgap
|  2> %output
|  3>     printlevel normal
|  4> end
|  5> %cpcm
|  6>     smd true
|  7>     smdsolvent "water"
|  8> end
|  9> * xyz 0 1
| 10> C -0.0421918327 0.9038657197 0.2836350228
| 11> C -0.8640066021 -0.3757684519 0.257816835
| 12> Cl -2.4950487907 -0.0541342449 -0.4202141064
| 13> C 1.3379926766 0.6683905644 0.8740577923
| 14> Cl 2.3130096326 -0.4317635067 -0.1683743347
| 15> H 0.0498180911 1.2989838017 -0.7287098088
| 16> H -0.5486649936 1.6494808434 0.8984241826
| 17> H -0.4065048652 -1.1301090988 -0.3800499265
| 18> H -1.0186073859 -0.7736047678 1.2592702913
| 19> H 1.282847898 0.1904641237 1.8499389053
| 20> H 1.898780725 1.5980898305 0.9365469301
| 21> *
| 22>
| 23>                          ****END OF INPUT****

CARTESIAN COORDINATES (ANGSTROEM)
---------------------------------
  C     -0.042192    0.903866    0.283635
  C     -0.864007   -0.375768    0.257817
  Cl    -2.495049   -0.054134   -0.420214
  C      1.337993    0.668391    0.874058
  Cl     2.313010   -0.431764   -0.168374
  H      0.049818    1.298984   -0.728710
  H     -0.548665    1.649481    0.898424
  H     -0.406505   -1.130109   -0.380050
  H     -1.018607   -0.773605    1.259270
  H      1.282848    0.190464    1.849939
  H      1.898781    1.598090    0.936547

 Total Charge           Charge          ....    0
 Multiplicity           Mult            ....    1
 Number of Electrons    NEL             ....   58
 Basis Dimension        Dim             ....  141

ORBITAL ENERGIES
----------------

  NO   OCC          E(Eh)            E(eV)
   0   2.0000    -101.203025     -2753.8743
   1   2.0000    -101.203004     -2753.8738
   2   2.0000     -10.088241      -274.5150
   3   2.0000     -10.084931      -274.4249
   4   2.0000     -10.042463      -273.2693
   5   2.0000      -9.359287      -254.6792
   6   2.0000      -9.359222      -254.6774
   7   2.0000      -7.105156      -193.3411
   8   2.0000      -7.105147      -193.3409
   9   2.0000      -7.095525      -193.0791
  10   2.0000      -7.095442      -193.0768
  11   2.0000      -7.095409      -193.0759
  12   2.0000      -7.095377      -193.0750
  13   2.0000      -0.832416       -22.6512
  14   2.0000      -0.809009       -22.0143
  15   2.0000      -0.719746       -19.5853
  16   2.0000      -0.626014       -17.0347
  17   2.0000      -0.559084       -15.2135
  18   2.0000      -0.453809       -12.3488
  19   2.0000      -0.435226       -11.8431
  20   2.0000      -0.410088       -11.1591
  21   2.0000      -0.392042       -10.6680
  22   2.0000      -0.358056        -9.7432
  23   2.0000      -0.346471        -9.4280
  24   2.0000      -0.327429        -8.9098
  25   2.0000      -0.280840        -7.6420
  26   2.0000      -0.269837        -7.3426
  27   2.0000      -0.267804        -7.2873
  28   2.0000      -0.259420        -7.0592
  29   0.0000       0.007818         0.2127
  30   0.0000       0.008698         0.2367
  31   0.0000       0.113425         3.0865
  32   0.0000       0.117426         3.1953
  33   0.0000       0.137281         3.7356

MULLIKEN ATOMIC CHARGES
-----------------------
   0 C :   -0.278923
   1 C :   -0.176036
   2 Cl:   -0.239263
   3 C :   -0.177216
   4 Cl:   -0.250173
   5 H :    0.178864
   6 H :    0.179688
   7 H :    0.187765
   8 H :    0.189852
   9 H :    0.186508
  10 H :    0.198935
Sum of atomic charges:    0.0000000

LOEWDIN ATOMIC CHARGES
----------------------
   0 C :   -0.344185
   1 C :   -0.324970
   2 Cl:   -0.024679
   3 C :   -0.306144
   4 Cl:   -0.032220
   5 H :    0.171257
   6 H :    0.178302
   7 H :    0.167956
   8 H :    0.170036
   9 H :    0.171454
  10 H :    0.173193

  Mayer bond orders larger than 0.100000
B(  0-C ,  1-C ) :   0.9348 B(  0-C ,  3-C ) :   0.9203 B(  0-C ,  5-H ) :   0.9623
B(  0-C ,  6-H ) :   0.9415 B(  1-C ,  2-Cl) :   0.9442 B(  1-C ,  7-H ) :   0.9489
B(  1-C ,  8-H ) :   0.9501 B(  3-C ,  4-Cl) :   0.9310 B(  3-C ,  9-H ) :   0.9555
B(  3-C , 10-H ) :   0.9458

Dispersion correction           -0.002853935
FINAL SINGLE POINT ENERGY     -1038.254726896665

DIPOLE MOMENT
-------------

Method             : SCF
Type of density    : Electron Density
Multiplicity       :   1
Irrep              :   0
Energy             : -1038.2617449257716089 Eh
Relativity type    :
Basis              : AO
                                X                 Y                 Z
Electronic contribution:     -1.059844077      -2.747666569      -3.386329982
Nuclear contribution   :      1.424245531       3.310303441       4.388294210
                        -----------------------------------------
Total Dipole Moment    :      0.364401455       0.562636873       1.001964228
                        -----------------------------------------
Magnitude (a.u.)       :      1.205521043
Magnitude (Debye)      :      3.064190976

Rotational constants in cm-1:             0.308663             0.036445             0.034088
Rotational constants in MHz :          9253.482664          1092.600258          1021.942910

                             ****ORCA TERMINATED NORMALLY****
TOTAL RUN TIME: 0 days 0 hours 0 minutes 21 seconds 238 msec
