                         Program Version 6.0.0  -   RELEASE  -
|  1> ! r2scan-3c def2/J RI DEFGRID2 scfconv6 printgap
|  2> %output
|  3>     printlevel normal
|  4> end
|  5> * xyz 0 1
|  6> C -3.3809621699 -0.9725920932 0.3876761087
|  7> C -1.8997897403 -0.900284652 0.0354919427
|  8> C -1.3769001159 0.5282982438 0.1613698826
|  9> C 0.0803295492 0.6956794375 -0.1822006115
| 10> O 0.6033978907 1.7757358547 -0.3786976825
| 11> O 0.73379096 -0.4547474312 -0.2458373897
| 12> C 2.1412774222 -0.4276221163 -0.5345204528
| 13> C 2.9581171499 -0.2406146673 0.7348968655
| 14> H -3.9628377974 -0.3365302472 -0.2749064289
| 15> H -3.7423719863 -1.9924972373 0.2900436371
| 16> H -3.5467471403 -0.6450509571 1.4109895831
| 17> H -1.7468107259 -1.2513001637 -0.9862353704
| 18> H -1.3308563075 -1.5534351647 0.6977504571
| 19> H -1.4986883745 0.8836237062 1.1883532619
| 20> H -1.9416377861 1.2103018891 -0.4777254319
| 21> H 2.3440088479 -1.3932377875 -0.9986574112
| 22> H 2.3377260955 0.3842810557 -1.2413842383
| 23> H 2.7150167799 -1.0175545183 1.4545950857
| 24> H 4.0147083775 -0.2927392619 0.4935654805
| 25> H 2.7442155539 0.7308938031 1.1750249681
| 26> *
| 27>
| 28>                          ****END OF INPUT****

CARTESIAN COORDINATES (ANGSTROEM)
---------------------------------
  C     -3.380962   -0.972592    0.387676
  C     -1.899790   -0.900285    0.035492
  C     -1.376900    0.528298    0.161370
  C      0.080330    0.695679   -0.182201
  O      0.603398    1.775736   -0.378698
  O      0.733791   -0.454747   -0.245837
  C      2.141277   -0.427622   -0.534520
  C      2.958117   -0.240615    0.734897
  H     -3.962838   -0.336530   -0.274906
  H     -3.742372   -1.992497    0.290044
  H     -3.546747   -0.645051    1.410990
  H     -1.746811   -1.251300   -0.986235
  H     -1.330856   -1.553435    0.697750
  H     -1.498688    0.883624    1.188353
  H     -1.941638    1.210302   -0.477725
  H      2.344009   -1.393238   -0.998657
  H      2.337726    0.384281   -1.241384
  H      2.715017   -1.017555    1.454595
  H      4.014708   -0.292739    0.493565
  H      2.744216    0.730894    1.175025

 Total Charge           Charge          ....    0
 Multiplicity           Mult            ....    1
 Number of Electrons    NEL             ....   64
 Basis Dimension        Dim             ....  222

ORBITAL ENERGIES
----------------

  NO   OCC          E(Eh)            E(eV)
   0   2.0000     -18.997376      -516.9449
   1   2.0000     -18.924179      -514.9531
   2   2.0000     -10.151403      -276.2337
   3   2.0000     -10.091542      -274.6048
   4   2.0000     -10.042131      -273.2603
   5   2.0000     -10.031994      -272.9844
   6   2.0000     -10.028946      -272.9015
   7   2.0000     -10.021310      -272.6937
   8   2.0000      -1.071886       -29.1675
   9   2.0000      -0.972484       -26.4626
  10   2.0000      -0.774842       -21.0845
  11   2.0000      -0.738124       -20.0854
  12   2.0000      -0.680277       -18.5113
  13   2.0000      -0.622090       -16.9279
  14   2.0000      -0.569677       -15.5017
  15   2.0000      -0.523964       -14.2578
  16   2.0000      -0.474296       -12.9063
  17   2.0000      -0.457111       -12.4386
  18   2.0000      -0.440543       -11.9878
  19   2.0000      -0.418269       -11.3817
  20   2.0000      -0.411167       -11.1884
  21   2.0000      -0.385020       -10.4769
  22   2.0000      -0.376891       -10.2557
  23   2.0000      -0.368459       -10.0263
  24   2.0000      -0.345833        -9.4106
  25   2.0000      -0.334933        -9.1140
  26   2.0000      -0.332426        -9.0458
  27   2.0000      -0.319480        -8.6935
  28   2.0000      -0.307402        -8.3648
  29   2.0000      -0.302456        -8.2303
  30   2.0000      -0.269250        -7.3267
  31   2.0000      -0.231093        -6.2884
  32   0.0000      -0.012213        -0.3323
  33   0.0000       0.072793         1.9808
  34   0.0000       0.091369         2.4863
  35   0.0000       0.106003         2.8845
  36   0.0000       0.120081         3.2676

MULLIKEN ATOMIC CHARGES
-----------------------
   0 C :   -0.463996
   1 C :   -0.237434
   2 C :   -0.338134
   3 C :    0.362621
   4 O :   -0.421831
   5 O :   -0.149288
   6 C :   -0.141581
   7 C :   -0.465848
   8 H :    0.142309
   9 H :    0.148851
  10 H :    0.141466
  11 H :    0.145311
  12 H :    0.150740
  13 H :    0.169929
  14 H :    0.168220
  15 H :    0.148087
  16 H :    0.168952
  17 H :    0.151044
  18 H :    0.147042
  19 H :    0.173541
Sum of atomic charges:   -0.0000000

LOEWDIN ATOMIC CHARGES
----------------------
   0 C :   -0.422330
   1 C :   -0.297503
   2 C :   -0.228343
   3 C :    0.363012
   4 O :   -0.439540
   5 O :   -0.603993
   6 C :    0.029822
   7 C :   -0.390106
   8 H :    0.150548
   9 H :    0.152042
  10 H :    0.150326
  11 H :    0.158525
  12 H :    0.163264
  13 H :    0.183527
  14 H :    0.182541
  15 H :    0.177511
  16 H :    0.189081
  17 H :    0.156648
  18 H :    0.159323
  19 H :    0.165646

  Mayer bond orders larger than 0.100000
B(  0-C ,  1-C ) :   0.8883 B(  0-C ,  8-H ) :   0.9811 B(  0-C ,  9-H ) :   0.9747
B(  0-C , 10-H ) :   0.9843 B(  1-C ,  2-C ) :   0.9284 B(  1-C , 11-H ) :   0.9677
B(  1-C , 12-H ) :   0.9631 B(  2-C ,  3-C ) :   1.0175 B(  2-C , 13-H ) :   0.9342
B(  2-C , 14-H ) :   0.9674 B(  3-C ,  4-O ) :   1.8573 B(  3-C ,  5-O ) :   1.0730
B(  5-O ,  6-C ) :   0.8109 B(  6-C ,  7-C ) :   0.9330 B(  6-C , 15-H ) :   0.9630
B(  6-C , 16-H ) :   0.9668 B(  7-C , 17-H ) :   0.9744 B(  7-C , 18-H ) :   0.9646
B(  7-C , 19-H ) :   0.9719

Dispersion correction           -0.004995555
FINAL SINGLE POINT ENERGY      -386.234882823177

DIPOLE MOMENT
-------------

Method             : SCF
Type of density    : Electron Density
Multiplicity       :   1
Irrep              :   0
Energy             :  -386.2416384699258742 Eh
Relativity type    :
Basis              : AO
                                X                 Y                 Z
Electronic contribution:      3.373040859       4.078038867      -2.408433929
Nuclear contribution   :     -3.370963883      -4.927594908       2.553260563
                        -----------------------------------------
Total Dipole Moment    :      0.002076977      -0.849556041       0.144826634
                        -----------------------------------------
Magnitude (a.u.)       :      0.861814675
Magnitude (Debye)      :      2.190558818

Rotational constants in cm-1:             0.139093             0.033303             0.029154
Rotational constants in MHz :          4169.917020           998.408008           874.019955

                             ****ORCA TERMINATED NORMALLY****
TOTAL RUN TIME: 0 days 0 hours 0 minutes 31 seconds 52 msec
