                         Program Version 6.0.0  -   RELEASE  -
|  1> ! r2scan-3c def2/J RI DEFGRID2 scfconv6 printgap
|  2> %output
|  3>     printlevel normal
|  4> end
|  5> %cpcm
|  6>     smd true
|  7>     smdsolvent "water"
|  8> end
|  9> * xyz 0 1
| 10> C -3.3809621699 -0.9725920932 0.3876761087
| 11> C -1.8997897403 -0.900284652 0.0354919427
| 12> C -1.3769001159 0.5282982438 0.1613698826
| 13> C 0.0803295492 0.6956794375 -0.1822006115
| 14> O 0.6033978907 1.7757358547 -0.3786976825
| 15> O 0.73379096 -0.4547474312 -0.2458373897
| 16> C 2.1412774222 -0.4276221163 -0.5345204528
| 17> C 2.9581171499 -0.2406146673 0.7348968655
| 18> H -3.9628377974 -0.3365302472 -0.2749064289
| 19> H -3.7423719863 -1.9924972373 0.2900436371
| 20> H -3.5467471403 -0.6450509571 1.4109895831
| 21> H -1.7468107259 -1.2513001637 -0.9862353704
| 22> H -1.3308563075 -1.5534351647 0.6977504571
| 23> H -1.4986883745 0.8836237062 1.1883532619
| 24> H -1.9416377861 1.2103018891 -0.4777254319
| 25> H 2.3440088479 -1.3932377875 -0.9986574112
| 26> H 2.3377260955 0.3842810557 -1.2413842383
| 27> H 2.7150167799 -1.0175545183 1.4545950857
| 28> H 4.0147083775 -0.2927392619 0.4935654805
| 29> H 2.7442155539 0.7308938031 1.1750249681
| 30> *
| 31>
| 32>                          ****END OF INPUT****

CARTESIAN COORDINATES (ANGSTROEM)
---------------------------------
  C     -3.380962   -0.972592    0.387676
  C     -1.899790   -0.900285    0.035492
  C     -1.376900    0.528298    0.161370
  C      0.080330    0.695679   -0.182201
  O      0.603398    1.775736   -0.378698
  O      0.733791   -0.454747   -0.245837
  C      2.141277   -0.427622   -0.534520
  C      2.958117   -0.240615    0.734897
  H     -3.962838   -0.336530   -0.274906
  H     -3.742372   -1.992497    0.290044
  H     -3.546747   -0.645051    1.410990
  H     -1.746811   -1.251300   -0.986235
  H     -1.330856   -1.553435    0.697750
  H     -1.498688    0.883624    1.188353
  H     -1.941638    1.210302   -0.477725
  H      2.344009   -1.393238   -0.998657
  H      2.337726    0.384281   -1.241384
  H      2.715017   -1.017555    1.454595
  H      4.014708   -0.292739    0.493565
  H      2.744216    0.730894    1.175025

 Total Charge           Charge          ....    0
 Multiplicity           Mult            ....    1
 Number of Electrons    NEL             ....   64
 Basis Dimension        Dim             ....  222

ORBITAL ENERGIES
----------------

  NO   OCC          E(Eh)            E(eV)
   0   2.0000     -19.002843      -517.0937
   1   2.0000     -18.940626      -515.4006
   2   2.0000     -10.162310      -276.5305
   3   2.0000     -10.083597      -274.3886
   4   2.0000     -10.035770      -273.0872
   5   2.0000     -10.023619      -272.7565
   6   2.0000     -10.018375      -272.6138
   7   2.0000     -10.010178      -272.3908
   8   2.0000      -1.079017       -29.3615
   9   2.0000      -0.986854       -26.8537
  10   2.0000      -0.768966       -20.9246
  11   2.0000      -0.730516       -19.8783
  12   2.0000      -0.673552       -18.3283
  13   2.0000      -0.616589       -16.7782
  14   2.0000      -0.562531       -15.3073
  15   2.0000      -0.521067       -14.1790
  16   2.0000      -0.472541       -12.8585
  17   2.0000      -0.455264       -12.3884
  18   2.0000      -0.450907       -12.2698
  19   2.0000      -0.416280       -11.3276
  20   2.0000      -0.408092       -11.1048
  21   2.0000      -0.377681       -10.2772
  22   2.0000      -0.371568       -10.1109
  23   2.0000      -0.360406        -9.8072
  24   2.0000      -0.338473        -9.2103
  25   2.0000      -0.333387        -9.0719
  26   2.0000      -0.329865        -8.9761
  27   2.0000      -0.311951        -8.4886
  28   2.0000      -0.301126        -8.1941
  29   2.0000      -0.295979        -8.0540
  30   2.0000      -0.277091        -7.5400
  31   2.0000      -0.247160        -6.7256
  32   0.0000      -0.020271        -0.5516
  33   0.0000       0.077683         2.1139
  34   0.0000       0.097935         2.6650
  35   0.0000       0.115470         3.1421
  36   0.0000       0.129775         3.5314

MULLIKEN ATOMIC CHARGES
-----------------------
   0 C :   -0.512367
   1 C :   -0.245332
   2 C :   -0.348583
   3 C :    0.405104
   4 O :   -0.511578
   5 O :   -0.166895
   6 C :   -0.147366
   7 C :   -0.490356
   8 H :    0.155884
   9 H :    0.159285
  10 H :    0.156081
  11 H :    0.157274
  12 H :    0.156149
  13 H :    0.197642
  14 H :    0.184332
  15 H :    0.174350
  16 H :    0.171526
  17 H :    0.165795
  18 H :    0.170380
  19 H :    0.168676
Sum of atomic charges:   -0.0000000

LOEWDIN ATOMIC CHARGES
----------------------
   0 C :   -0.427988
   1 C :   -0.296352
   2 C :   -0.226608
   3 C :    0.373816
   4 O :   -0.503181
   5 O :   -0.604532
   6 C :    0.034406
   7 C :   -0.392858
   8 H :    0.154198
   9 H :    0.154726
  10 H :    0.154320
  11 H :    0.160960
  12 H :    0.164062
  13 H :    0.194768
  14 H :    0.189136
  15 H :    0.189031
  16 H :    0.189787
  17 H :    0.161967
  18 H :    0.167880
  19 H :    0.162464

  Mayer bond orders larger than 0.100000
B(  0-C ,  1-C ) :   0.8830 B(  0-C ,  8-H ) :   0.9790 B(  0-C ,  9-H ) :   0.9715
B(  0-C , 10-H ) :   0.9819 B(  1-C ,  2-C ) :   0.9170 B(  1-C , 11-H ) :   0.9690
B(  1-C , 12-H ) :   0.9627 B(  2-C ,  3-C ) :   1.0234 B(  2-C , 13-H ) :   0.9182
B(  2-C , 14-H ) :   0.9613 B(  3-C ,  4-O ) :   1.7840 B(  3-C ,  5-O ) :   1.1021
B(  5-O ,  6-C ) :   0.7928 B(  6-C ,  7-C ) :   0.9325 B(  6-C , 15-H ) :   0.9534
B(  6-C , 16-H ) :   0.9630 B(  7-C , 17-H ) :   0.9702 B(  7-C , 18-H ) :   0.9597
B(  7-C , 19-H ) :   0.9698

Dispersion correction           -0.004995555
FINAL SINGLE POINT ENERGY      -386.240251739684

DIPOLE MOMENT
-------------

Method             : SCF
Type of density    : Electron Density
Multiplicity       :   1
Irrep              :   0
Energy             :  -386.2470073864323012 Eh
Relativity type    :
Basis              : AO
                                X                 Y                 Z
Electronic contribution:      3.322514848       3.744656980      -2.354615699
Nuclear contribution   :     -3.370963883      -4.927594908       2.553260563
                        -----------------------------------------
Total Dipole Moment    :     -0.048449034      -1.182937928       0.198644864
                        -----------------------------------------
Magnitude (a.u.)       :      1.200478751
Magnitude (Debye)      :      3.051374489

Rotational constants in cm-1:             0.139093             0.033303             0.029154
Rotational constants in MHz :          4169.917020           998.408008           874.019955

                             ****ORCA TERMINATED NORMALLY****
TOTAL RUN TIME: 0 days 0 hours 0 minutes 36 seconds 941 msec
