                         Program Version 6.0.0  -   RELEASE  -
|  1> ! pbe def2-sv(p) def2/J RI DEFGRID1 loosescf d4 GCP(DFT/SV(P)) printgap
|  2> %output
|  3>     printlevel normal
|  4> end
|  5> * xyz 0 1
|  6> C -2.307551854 -1.0377577785 0.9342088912
|  7> C -2.0262955091 -0.7123008481 -0.5277269935
|  8> C -1.4608856114 0.7024903447 -0.6935011558
|  9> C -0.1160184973 0.8502540321 -0.0290923503
| 10> O 0.152853829 1.6876309895 0.8096351231
| 11> O 0.7587494598 -0.0405056574 -0.4710616579
| 12> C 2.0849448559 -0.0229039349 0.0812564678
| 13> C 2.7384111319 -1.3624299696 -0.2006487208
| 14> H -1.3966149124 -0.9653663984 1.5257520793
| 15> H -3.0331104706 -0.3410495842 1.3476718749
| 16> H -2.701788269 -2.0457878707 1.0304483692
| 17> H -2.9511647648 -0.7855230511 -1.1007237797
| 18> H -1.3124751168 -1.4286791298 -0.9356142962
| 19> H -2.1329282119 1.4421519298 -0.2579359414
| 20> H -1.328273674 0.9190562307 -1.7545939243
| 21> H 2.6364718527 0.7986153676 -0.3873450841
| 22> H 2.0127520353 0.180809852 1.1548443839
| 23> H 3.7514974525 -1.3558205455 0.1877290089
| 24> H 2.1781519428 -2.1615642474 0.2761608014
| 25> H 2.7650319917 -1.5431110878 -1.2710699681
| 26> *
| 27>
| 28>                          ****END OF INPUT****

CARTESIAN COORDINATES (ANGSTROEM)
---------------------------------
  C     -2.307552   -1.037758    0.934209
  C     -2.026296   -0.712301   -0.527727
  C     -1.460886    0.702490   -0.693501
  C     -0.116018    0.850254   -0.029092
  O      0.152854    1.687631    0.809635
  O      0.758749   -0.040506   -0.471062
  C      2.084945   -0.022904    0.081256
  C      2.738411   -1.362430   -0.200649
  H     -1.396615   -0.965366    1.525752
  H     -3.033110   -0.341050    1.347672
  H     -2.701788   -2.045788    1.030448
  H     -2.951165   -0.785523   -1.100724
  H     -1.312475   -1.428679   -0.935614
  H     -2.132928    1.442152   -0.257936
  H     -1.328274    0.919056   -1.754594
  H      2.636472    0.798615   -0.387345
  H      2.012752    0.180810    1.154844
  H      3.751497   -1.355821    0.187729
  H      2.178152   -2.161564    0.276161
  H      2.765032   -1.543111   -1.271070

 Total Charge           Charge          ....    0
 Multiplicity           Mult            ....    1
 Number of Electrons    NEL             ....   64
 Basis Dimension        Dim             ....  136

ORBITAL ENERGIES
----------------

  NO   OCC          E(Eh)            E(eV)
   0   2.0000     -18.797725      -511.5121
   1   2.0000     -18.728448      -509.6270
   2   2.0000     -10.003349      -272.2050
   3   2.0000      -9.947214      -270.6774
   4   2.0000      -9.896173      -269.2886
   5   2.0000      -9.892877      -269.1989
   6   2.0000      -9.890134      -269.1242
   7   2.0000      -9.877976      -268.7934
   8   2.0000      -1.004635       -27.3375
   9   2.0000      -0.905308       -24.6347
  10   2.0000      -0.730748       -19.8847
  11   2.0000      -0.698455       -19.0059
  12   2.0000      -0.636535       -17.3210
  13   2.0000      -0.582711       -15.8564
  14   2.0000      -0.536036       -14.5863
  15   2.0000      -0.506869       -13.7926
  16   2.0000      -0.448650       -12.2084
  17   2.0000      -0.440165       -11.9775
  18   2.0000      -0.413967       -11.2646
  19   2.0000      -0.402315       -10.9475
  20   2.0000      -0.389737       -10.6053
  21   2.0000      -0.366974        -9.9859
  22   2.0000      -0.362519        -9.8646
  23   2.0000      -0.354172        -9.6375
  24   2.0000      -0.341195        -9.2844
  25   2.0000      -0.324102        -8.8193
  26   2.0000      -0.312883        -8.5140
  27   2.0000      -0.299343        -8.1455
  28   2.0000      -0.297929        -8.1071
  29   2.0000      -0.292417        -7.9571
  30   2.0000      -0.255570        -6.9544
  31   2.0000      -0.211428        -5.7532
  32   0.0000      -0.018274        -0.4973
  33   0.0000       0.032296         0.8788
  34   0.0000       0.052538         1.4296
  35   0.0000       0.073874         2.0102
  36   0.0000       0.077847         2.1183

MULLIKEN ATOMIC CHARGES
-----------------------
   0 C :   -0.287634
   1 C :   -0.209925
   2 C :   -0.108901
   3 C :    0.082196
   4 O :   -0.206536
   5 O :   -0.244677
   6 C :   -0.027461
   7 C :   -0.276862
   8 H :    0.116180
   9 H :    0.103471
  10 H :    0.106111
  11 H :    0.092433
  12 H :    0.102853
  13 H :    0.097314
  14 H :    0.108983
  15 H :    0.103119
  16 H :    0.109528
  17 H :    0.111255
  18 H :    0.114390
  19 H :    0.114163
Sum of atomic charges:   -0.0000000

LOEWDIN ATOMIC CHARGES
----------------------
   0 C :   -0.341968
   1 C :   -0.231550
   2 C :   -0.242816
   3 C :    0.031362
   4 O :   -0.168937
   5 O :   -0.070454
   6 C :   -0.109168
   7 C :   -0.351068
   8 H :    0.119677
   9 H :    0.120337
  10 H :    0.120771
  11 H :    0.118296
  12 H :    0.119582
  13 H :    0.132275
  14 H :    0.138727
  15 H :    0.115540
  16 H :    0.117384
  17 H :    0.130217
  18 H :    0.125772
  19 H :    0.126021

  Mayer bond orders larger than 0.100000
B(  0-C ,  1-C ) :   1.1523 B(  0-C ,  8-H ) :   0.9488 B(  0-C ,  9-H ) :   0.9537
B(  0-C , 10-H ) :   0.9517 B(  1-C ,  2-C ) :   1.1077 B(  1-C , 11-H ) :   0.9263
B(  1-C , 12-H ) :   0.9226 B(  2-C ,  3-C ) :   1.0366 B(  2-C , 13-H ) :   0.9113
B(  2-C , 14-H ) :   0.8945 B(  3-C ,  4-O ) :   2.0661 B(  3-C ,  5-O ) :   1.1871
B(  5-O ,  6-C ) :   0.9148 B(  6-C ,  7-C ) :   1.1525 B(  6-C , 15-H ) :   0.9364
B(  6-C , 16-H ) :   0.9222 B(  7-C , 17-H ) :   0.9446 B(  7-C , 18-H ) :   0.9519
B(  7-C , 19-H ) :   0.9484

Dispersion correction           -0.015099974
FINAL SINGLE POINT ENERGY      -385.457363987659

DIPOLE MOMENT
-------------

Method             : SCF
Type of density    : Electron Density
Multiplicity       :   1
Irrep              :   0
Energy             :  -385.5322737845192478 Eh
Relativity type    :
Basis              : AO
                                X                 Y                 Z
Electronic contribution:      1.581114786       6.124288450      -0.274401688
Nuclear contribution   :     -1.405412953      -6.811310649      -0.168236896
                        -----------------------------------------
Total Dipole Moment    :      0.175701832      -0.687022199      -0.442638584
                        -----------------------------------------
Magnitude (a.u.)       :      0.835942313
Magnitude (Debye)      :      2.124796500

Rotational constants in cm-1:             0.099817             0.040933             0.034564
Rotational constants in MHz :          2992.437403          1227.128296          1036.203564

                             ****ORCA TERMINATED NORMALLY****
TOTAL RUN TIME: 0 days 0 hours 0 minutes 11 seconds 436 msec
