                         Program Version 6.0.0  -   RELEASE  -
|  1> ! r2scan-3c def2/J RI DEFGRID2 scfconv6 printgap
|  2> %output
|  3>     printlevel normal
|  4> end
|  5> * xyz 0 1
|  6> C -2.6429634976 -1.237126594 -0.0336040253
|  7> C -2.5244242883 0.2820816752 -0.0163101852
|  8> C -1.24190089 0.7386792021 0.685147613
|  9> C -0.0225382812 0.3413474859 -0.1071604093
| 10> O 0.1380377444 0.560561806 -1.2897304587
| 11> O 0.864640663 -0.2923992065 0.650597258
| 12> C 2.1030291458 -0.7132125943 0.0544992082
| 13> C 3.1442695718 0.3937637531 0.1154666485
| 14> H -3.5676806296 -1.5396594666 -0.5175328261
| 15> H -1.8108416753 -1.6763857803 -0.5809778126
| 16> H -2.6355114106 -1.6329365443 0.9791548176
| 17> H -3.3820841357 0.7110431939 0.502320386
| 18> H -2.5154388521 0.6610132973 -1.0400326731
| 19> H -1.1637726717 0.3090532971 1.683125003
| 20> H -1.2374586609 1.8275866086 0.7611417458
| 21> H 2.410104454 -1.5800855598 0.640355397
| 22> H 1.9098705223 -1.0037101594 -0.982787474
| 23> H 4.0852752337 0.0246487175 -0.2790366249
| 24> H 2.8200325031 1.243250762 -0.4816600931
| 25> H 3.2868462994 0.716806009 1.1430986272
| 26> *
| 27>
| 28>                          ****END OF INPUT****

CARTESIAN COORDINATES (ANGSTROEM)
---------------------------------
  C     -2.642963   -1.237127   -0.033604
  C     -2.524424    0.282082   -0.016310
  C     -1.241901    0.738679    0.685148
  C     -0.022538    0.341347   -0.107160
  O      0.138038    0.560562   -1.289730
  O      0.864641   -0.292399    0.650597
  C      2.103029   -0.713213    0.054499
  C      3.144270    0.393764    0.115467
  H     -3.567681   -1.539659   -0.517533
  H     -1.810842   -1.676386   -0.580978
  H     -2.635511   -1.632937    0.979155
  H     -3.382084    0.711043    0.502320
  H     -2.515439    0.661013   -1.040033
  H     -1.163773    0.309053    1.683125
  H     -1.237459    1.827587    0.761142
  H      2.410104   -1.580086    0.640355
  H      1.909871   -1.003710   -0.982787
  H      4.085275    0.024649   -0.279037
  H      2.820033    1.243251   -0.481660
  H      3.286846    0.716806    1.143099

 Total Charge           Charge          ....    0
 Multiplicity           Mult            ....    1
 Number of Electrons    NEL             ....   64
 Basis Dimension        Dim             ....  222

ORBITAL ENERGIES
----------------

  NO   OCC          E(Eh)            E(eV)
   0   2.0000     -18.996642      -516.9249
   1   2.0000     -18.927583      -515.0457
   2   2.0000     -10.151411      -276.2339
   3   2.0000     -10.090575      -274.5785
   4   2.0000     -10.040142      -273.2061
   5   2.0000     -10.032921      -273.0097
   6   2.0000     -10.028814      -272.8979
   7   2.0000     -10.018550      -272.6186
   8   2.0000      -1.070941       -29.1418
   9   2.0000      -0.975373       -26.5412
  10   2.0000      -0.772386       -21.0177
  11   2.0000      -0.739187       -20.1143
  12   2.0000      -0.677503       -18.4358
  13   2.0000      -0.624386       -16.9904
  14   2.0000      -0.565094       -15.3770
  15   2.0000      -0.519127       -14.1262
  16   2.0000      -0.473776       -12.8921
  17   2.0000      -0.455266       -12.3884
  18   2.0000      -0.440761       -11.9937
  19   2.0000      -0.418098       -11.3770
  20   2.0000      -0.411620       -11.2008
  21   2.0000      -0.390185       -10.6175
  22   2.0000      -0.376359       -10.2412
  23   2.0000      -0.365169        -9.9368
  24   2.0000      -0.351057        -9.5527
  25   2.0000      -0.343767        -9.3544
  26   2.0000      -0.316718        -8.6183
  27   2.0000      -0.309652        -8.4261
  28   2.0000      -0.308168        -8.3857
  29   2.0000      -0.302835        -8.2406
  30   2.0000      -0.271126        -7.3777
  31   2.0000      -0.236259        -6.4289
  32   0.0000      -0.015092        -0.4107
  33   0.0000       0.074993         2.0407
  34   0.0000       0.093460         2.5432
  35   0.0000       0.109257         2.9730
  36   0.0000       0.117938         3.2093

MULLIKEN ATOMIC CHARGES
-----------------------
   0 C :   -0.494222
   1 C :   -0.215437
   2 C :   -0.301213
   3 C :    0.349651
   4 O :   -0.430239
   5 O :   -0.174269
   6 C :   -0.139088
   7 C :   -0.468036
   8 H :    0.148358
   9 H :    0.156908
  10 H :    0.145740
  11 H :    0.143767
  12 H :    0.161434
  13 H :    0.165376
  14 H :    0.165567
  15 H :    0.147557
  16 H :    0.168856
  17 H :    0.146863
  18 H :    0.170796
  19 H :    0.151633
Sum of atomic charges:    0.0000000

LOEWDIN ATOMIC CHARGES
----------------------
   0 C :   -0.416666
   1 C :   -0.293970
   2 C :   -0.231946
   3 C :    0.355635
   4 O :   -0.439365
   5 O :   -0.595915
   6 C :    0.026301
   7 C :   -0.390008
   8 H :    0.152780
   9 H :    0.156086
  10 H :    0.150275
  11 H :    0.152674
  12 H :    0.167964
  13 H :    0.177403
  14 H :    0.181694
  15 H :    0.177633
  16 H :    0.188538
  17 H :    0.159107
  18 H :    0.164680
  19 H :    0.157097

  Mayer bond orders larger than 0.100000
B(  0-C ,  1-C ) :   0.9057 B(  0-C ,  8-H ) :   0.9689 B(  0-C ,  9-H ) :   0.9732
B(  0-C , 10-H ) :   0.9820 B(  1-C ,  2-C ) :   0.8893 B(  1-C , 11-H ) :   0.9657
B(  1-C , 12-H ) :   0.9661 B(  2-C ,  3-C ) :   0.9424 B(  2-C , 13-H ) :   1.0050
B(  2-C , 14-H ) :   0.9329 B(  3-C ,  4-O ) :   1.8310 B(  3-C ,  5-O ) :   1.0499
B(  5-O ,  6-C ) :   0.8189 B(  6-C ,  7-C ) :   0.9391 B(  6-C , 15-H ) :   0.9607
B(  6-C , 16-H ) :   0.9668 B(  7-C , 17-H ) :   0.9655 B(  7-C , 18-H ) :   0.9716
B(  7-C , 19-H ) :   0.9734

Dispersion correction           -0.005126155
FINAL SINGLE POINT ENERGY      -386.236679425580

DIPOLE MOMENT
-------------

Method             : SCF
Type of density    : Electron Density
Multiplicity       :   1
Irrep              :   0
Energy             :  -386.2432932845517826 Eh
Relativity type    :
Basis              : AO
                                X                 Y                 Z
Electronic contribution:      1.856572680       1.602967516      -1.049208912
Nuclear contribution   :     -1.674450448      -1.815481268       1.704711441
                        -----------------------------------------
Total Dipole Moment    :      0.182122231      -0.212513752       0.655502529
                        -----------------------------------------
Magnitude (a.u.)       :      0.712751126
Magnitude (Debye)      :      1.811669387

Rotational constants in cm-1:             0.157100             0.033798             0.032718
Rotational constants in MHz :          4709.751859          1013.243630           980.849071

                             ****ORCA TERMINATED NORMALLY****
TOTAL RUN TIME: 0 days 0 hours 0 minutes 32 seconds 643 msec
