                         Program Version 6.0.0  -   RELEASE  -
|  1> ! r2scan-3c def2/J RI DEFGRID2 scfconv6 printgap
|  2> %output
|  3>     printlevel normal
|  4> end
|  5> %cpcm
|  6>     smd true
|  7>     smdsolvent "water"
|  8> end
|  9> * xyz 0 1
| 10> C -2.6429634976 -1.237126594 -0.0336040253
| 11> C -2.5244242883 0.2820816752 -0.0163101852
| 12> C -1.24190089 0.7386792021 0.685147613
| 13> C -0.0225382812 0.3413474859 -0.1071604093
| 14> O 0.1380377444 0.560561806 -1.2897304587
| 15> O 0.864640663 -0.2923992065 0.650597258
| 16> C 2.1030291458 -0.7132125943 0.0544992082
| 17> C 3.1442695718 0.3937637531 0.1154666485
| 18> H -3.5676806296 -1.5396594666 -0.5175328261
| 19> H -1.8108416753 -1.6763857803 -0.5809778126
| 20> H -2.6355114106 -1.6329365443 0.9791548176
| 21> H -3.3820841357 0.7110431939 0.502320386
| 22> H -2.5154388521 0.6610132973 -1.0400326731
| 23> H -1.1637726717 0.3090532971 1.683125003
| 24> H -1.2374586609 1.8275866086 0.7611417458
| 25> H 2.410104454 -1.5800855598 0.640355397
| 26> H 1.9098705223 -1.0037101594 -0.982787474
| 27> H 4.0852752337 0.0246487175 -0.2790366249
| 28> H 2.8200325031 1.243250762 -0.4816600931
| 29> H 3.2868462994 0.716806009 1.1430986272
| 30> *
| 31>
| 32>                          ****END OF INPUT****

CARTESIAN COORDINATES (ANGSTROEM)
---------------------------------
  C     -2.642963   -1.237127   -0.033604
  C     -2.524424    0.282082   -0.016310
  C     -1.241901    0.738679    0.685148
  C     -0.022538    0.341347   -0.107160
  O      0.138038    0.560562   -1.289730
  O      0.864641   -0.292399    0.650597
  C      2.103029   -0.713213    0.054499
  C      3.144270    0.393764    0.115467
  H     -3.567681   -1.539659   -0.517533
  H     -1.810842   -1.676386   -0.580978
  H     -2.635511   -1.632937    0.979155
  H     -3.382084    0.711043    0.502320
  H     -2.515439    0.661013   -1.040033
  H     -1.163773    0.309053    1.683125
  H     -1.237459    1.827587    0.761142
  H      2.410104   -1.580086    0.640355
  H      1.909871   -1.003710   -0.982787
  H      4.085275    0.024649   -0.279037
  H      2.820033    1.243251   -0.481660
  H      3.286846    0.716806    1.143099

 Total Charge           Charge          ....    0
 Multiplicity           Mult            ....    1
 Number of Electrons    NEL             ....   64
 Basis Dimension        Dim             ....  222

ORBITAL ENERGIES
----------------

  NO   OCC          E(Eh)            E(eV)
   0   2.0000     -19.002754      -517.0912
   1   2.0000     -18.943335      -515.4744
   2   2.0000     -10.162212      -276.5278
   3   2.0000     -10.082980      -274.3718
   4   2.0000     -10.034913      -273.0639
   5   2.0000     -10.027546      -272.8634
   6   2.0000     -10.018401      -272.6145
   7   2.0000     -10.011326      -272.4220
   8   2.0000      -1.078621       -29.3508
   9   2.0000      -0.989037       -26.9131
  10   2.0000      -0.768743       -20.9186
  11   2.0000      -0.732909       -19.9435
  12   2.0000      -0.672469       -18.2988
  13   2.0000      -0.619504       -16.8576
  14   2.0000      -0.559442       -15.2232
  15   2.0000      -0.518106       -14.0984
  16   2.0000      -0.474182       -12.9032
  17   2.0000      -0.461488       -12.5577
  18   2.0000      -0.441795       -12.0218
  19   2.0000      -0.421355       -11.4656
  20   2.0000      -0.406430       -11.0595
  21   2.0000      -0.386004       -10.5037
  22   2.0000      -0.369817       -10.0632
  23   2.0000      -0.361149        -9.8274
  24   2.0000      -0.350194        -9.5293
  25   2.0000      -0.340226        -9.2580
  26   2.0000      -0.310480        -8.4486
  27   2.0000      -0.304996        -8.2994
  28   2.0000      -0.303096        -8.2477
  29   2.0000      -0.300918        -8.1884
  30   2.0000      -0.278708        -7.5840
  31   2.0000      -0.252359        -6.8670
  32   0.0000      -0.023192        -0.6311
  33   0.0000       0.076946         2.0938
  34   0.0000       0.100504         2.7349
  35   0.0000       0.118186         3.2160
  36   0.0000       0.125902         3.4260

MULLIKEN ATOMIC CHARGES
-----------------------
   0 C :   -0.529042
   1 C :   -0.224857
   2 C :   -0.316095
   3 C :    0.390051
   4 O :   -0.513053
   5 O :   -0.196182
   6 C :   -0.144613
   7 C :   -0.493610
   8 H :    0.161190
   9 H :    0.162072
  10 H :    0.161806
  11 H :    0.163113
  12 H :    0.154261
  13 H :    0.180205
  14 H :    0.195294
  15 H :    0.173510
  16 H :    0.172384
  17 H :    0.170249
  18 H :    0.167876
  19 H :    0.165440
Sum of atomic charges:    0.0000000

LOEWDIN ATOMIC CHARGES
----------------------
   0 C :   -0.423707
   1 C :   -0.293481
   2 C :   -0.228911
   3 C :    0.365444
   4 O :   -0.497869
   5 O :   -0.599125
   6 C :    0.031007
   7 C :   -0.392904
   8 H :    0.156072
   9 H :    0.156125
  10 H :    0.155649
  11 H :    0.160283
  12 H :    0.163588
  13 H :    0.184800
  14 H :    0.192355
  15 H :    0.188978
  16 H :    0.189783
  17 H :    0.167740
  18 H :    0.162248
  19 H :    0.161925

  Mayer bond orders larger than 0.100000
B(  0-C ,  1-C ) :   0.8999 B(  0-C ,  8-H ) :   0.9660 B(  0-C ,  9-H ) :   0.9710
B(  0-C , 10-H ) :   0.9782 B(  1-C ,  2-C ) :   0.8749 B(  1-C , 11-H ) :   0.9615
B(  1-C , 12-H ) :   0.9711 B(  2-C ,  3-C ) :   0.9462 B(  2-C , 13-H ) :   0.9945
B(  2-C , 14-H ) :   0.9253 B(  3-C ,  4-O ) :   1.7633 B(  3-C ,  5-O ) :   1.0723
B(  5-O ,  6-C ) :   0.8010 B(  6-C ,  7-C ) :   0.9380 B(  6-C , 15-H ) :   0.9513
B(  6-C , 16-H ) :   0.9629 B(  7-C , 17-H ) :   0.9605 B(  7-C , 18-H ) :   0.9690
B(  7-C , 19-H ) :   0.9696

Dispersion correction           -0.005126155
FINAL SINGLE POINT ENERGY      -386.241562578911

DIPOLE MOMENT
-------------

Method             : SCF
Type of density    : Electron Density
Multiplicity       :   1
Irrep              :   0
Energy             :  -386.2481764378825915 Eh
Relativity type    :
Basis              : AO
                                X                 Y                 Z
Electronic contribution:      1.898259614       1.507795598      -0.700112981
Nuclear contribution   :     -1.674450448      -1.815481268       1.704711441
                        -----------------------------------------
Total Dipole Moment    :      0.223809165      -0.307685670       1.004598460
                        -----------------------------------------
Magnitude (a.u.)       :      1.074234183
Magnitude (Debye)      :      2.730486297

Rotational constants in cm-1:             0.157100             0.033798             0.032718
Rotational constants in MHz :          4709.751859          1013.243630           980.849071

                             ****ORCA TERMINATED NORMALLY****
TOTAL RUN TIME: 0 days 0 hours 0 minutes 39 seconds 329 msec
