                         Program Version 6.0.0  -   RELEASE  -
|  1> ! r2scan-3c def2/J RI DEFGRID2 scfconv6 printgap
|  2> %output
|  3>     printlevel normal
|  4> end
|  5> * xyz 0 1
|  6> C -2.5710950992 -1.0125167004 -0.6394651183
|  7> C -2.0690105875 -0.5546981809 0.7244223255
|  8> C -1.367415168 0.8079041062 0.6454879081
|  9> C -0.1111104145 0.7192736598 -0.181392852
| 10> O 0.063744726 1.275423027 -1.2473251383
| 11> O 0.8023415509 -0.0493719207 0.3932350678
| 12> C 2.0539002755 -0.2344797122 -0.2876253887
| 13> C 3.0285276236 -0.8809779399 0.6777554232
| 14> H -3.2920792234 -0.3027867489 -1.0381897413
| 15> H -1.7479395111 -1.0879026621 -1.3478266503
| 16> H -3.0494342144 -1.9851861353 -0.5615903791
| 17> H -1.3698063695 -1.2882519296 1.1281964884
| 18> H -2.9113129615 -0.470403906 1.4117683949
| 19> H -1.0876002205 1.128742162 1.6490966059
| 20> H -2.0233388547 1.5498124547 0.1905935602
| 21> H 1.8777125842 -0.8649163867 -1.1654721905
| 22> H 2.4076316017 0.7421311667 -0.6345775281
| 23> H 3.1785731164 -0.2399747883 1.5415294226
| 24> H 2.63886948 -1.8369814977 1.0143826901
| 25> H 3.9787621748 -1.0367456831 0.1778102273
| 26> *
| 27>
| 28>                          ****END OF INPUT****

CARTESIAN COORDINATES (ANGSTROEM)
---------------------------------
  C     -2.571095   -1.012517   -0.639465
  C     -2.069011   -0.554698    0.724422
  C     -1.367415    0.807904    0.645488
  C     -0.111110    0.719274   -0.181393
  O      0.063745    1.275423   -1.247325
  O      0.802342   -0.049372    0.393235
  C      2.053900   -0.234480   -0.287625
  C      3.028528   -0.880978    0.677755
  H     -3.292079   -0.302787   -1.038190
  H     -1.747940   -1.087903   -1.347827
  H     -3.049434   -1.985186   -0.561590
  H     -1.369806   -1.288252    1.128196
  H     -2.911313   -0.470404    1.411768
  H     -1.087600    1.128742    1.649097
  H     -2.023339    1.549812    0.190594
  H      1.877713   -0.864916   -1.165472
  H      2.407632    0.742131   -0.634578
  H      3.178573   -0.239975    1.541529
  H      2.638869   -1.836981    1.014383
  H      3.978762   -1.036746    0.177810

 Total Charge           Charge          ....    0
 Multiplicity           Mult            ....    1
 Number of Electrons    NEL             ....   64
 Basis Dimension        Dim             ....  222

ORBITAL ENERGIES
----------------

  NO   OCC          E(Eh)            E(eV)
   0   2.0000     -18.996388      -516.9180
   1   2.0000     -18.926057      -515.0042
   2   2.0000     -10.149953      -276.1943
   3   2.0000     -10.091865      -274.6136
   4   2.0000     -10.040511      -273.2162
   5   2.0000     -10.037036      -273.1216
   6   2.0000     -10.032569      -273.0001
   7   2.0000     -10.019384      -272.6413
   8   2.0000      -1.071806       -29.1653
   9   2.0000      -0.972814       -26.4716
  10   2.0000      -0.776060       -21.1177
  11   2.0000      -0.741906       -20.1883
  12   2.0000      -0.677664       -18.4402
  13   2.0000      -0.615780       -16.7562
  14   2.0000      -0.569479       -15.4963
  15   2.0000      -0.533807       -14.5256
  16   2.0000      -0.472124       -12.8471
  17   2.0000      -0.451914       -12.2972
  18   2.0000      -0.440611       -11.9896
  19   2.0000      -0.423710       -11.5297
  20   2.0000      -0.410705       -11.1759
  21   2.0000      -0.379685       -10.3317
  22   2.0000      -0.377864       -10.2822
  23   2.0000      -0.370812       -10.0903
  24   2.0000      -0.355191        -9.6652
  25   2.0000      -0.335196        -9.1212
  26   2.0000      -0.326280        -8.8785
  27   2.0000      -0.312305        -8.4983
  28   2.0000      -0.310740        -8.4557
  29   2.0000      -0.308868        -8.4047
  30   2.0000      -0.270611        -7.3637
  31   2.0000      -0.230245        -6.2653
  32   0.0000      -0.014638        -0.3983
  33   0.0000       0.071022         1.9326
  34   0.0000       0.095010         2.5854
  35   0.0000       0.114349         3.1116
  36   0.0000       0.120478         3.2784

MULLIKEN ATOMIC CHARGES
-----------------------
   0 C :   -0.480854
   1 C :   -0.232508
   2 C :   -0.309515
   3 C :    0.348560
   4 O :   -0.418071
   5 O :   -0.163380
   6 C :   -0.145951
   7 C :   -0.442602
   8 H :    0.148927
   9 H :    0.156861
  10 H :    0.147062
  11 H :    0.151928
  12 H :    0.146300
  13 H :    0.157209
  14 H :    0.168476
  15 H :    0.150284
  16 H :    0.165825
  17 H :    0.152870
  18 H :    0.151297
  19 H :    0.147282
Sum of atomic charges:    0.0000000

LOEWDIN ATOMIC CHARGES
----------------------
   0 C :   -0.415157
   1 C :   -0.292809
   2 C :   -0.231339
   3 C :    0.349251
   4 O :   -0.426488
   5 O :   -0.602043
   6 C :    0.033962
   7 C :   -0.386899
   8 H :    0.153451
   9 H :    0.156912
  10 H :    0.151458
  11 H :    0.162791
  12 H :    0.153242
  13 H :    0.178745
  14 H :    0.177251
  15 H :    0.175896
  16 H :    0.183977
  17 H :    0.159317
  18 H :    0.158863
  19 H :    0.159618

  Mayer bond orders larger than 0.100000
B(  0-C ,  1-C ) :   0.9143 B(  0-C ,  8-H ) :   0.9777 B(  0-C ,  9-H ) :   0.9708
B(  0-C , 10-H ) :   0.9704 B(  1-C ,  2-C ) :   0.8845 B(  1-C , 11-H ) :   0.9746
B(  1-C , 12-H ) :   0.9642 B(  2-C ,  3-C ) :   0.9548 B(  2-C , 13-H ) :   0.9489
B(  2-C , 14-H ) :   1.0024 B(  3-C ,  4-O ) :   1.8341 B(  3-C ,  5-O ) :   1.0544
B(  5-O ,  6-C ) :   0.8032 B(  6-C ,  7-C ) :   0.9435 B(  6-C , 15-H ) :   0.9472
B(  6-C , 16-H ) :   0.9601 B(  7-C , 17-H ) :   0.9743 B(  7-C , 18-H ) :   0.9699
B(  7-C , 19-H ) :   0.9681

Dispersion correction           -0.005088996
FINAL SINGLE POINT ENERGY      -386.235730413145

DIPOLE MOMENT
-------------

Method             : SCF
Type of density    : Electron Density
Multiplicity       :   1
Irrep              :   0
Energy             :  -386.2422826455511427 Eh
Relativity type    :
Basis              : AO
                                X                 Y                 Z
Electronic contribution:      1.495001458       4.747793087      -1.524436205
Nuclear contribution   :     -1.300555629      -5.322300026       2.206775977
                        -----------------------------------------
Total Dipole Moment    :      0.194445829      -0.574506939       0.682339772
                        -----------------------------------------
Magnitude (a.u.)       :      0.912937549
Magnitude (Debye)      :      2.320502836

Rotational constants in cm-1:             0.114878             0.036964             0.033346
Rotational constants in MHz :          3443.948876          1108.147292           999.700580

                             ****ORCA TERMINATED NORMALLY****
TOTAL RUN TIME: 0 days 0 hours 0 minutes 31 seconds 133 msec
