                         Program Version 6.0.0  -   RELEASE  -
|  1> ! r2scan-3c def2/J RI DEFGRID2 scfconv6 printgap
|  2> %output
|  3>     printlevel normal
|  4> end
|  5> %cpcm
|  6>     smd true
|  7>     smdsolvent "water"
|  8> end
|  9> * xyz 0 1
| 10> C -2.5710950992 -1.0125167004 -0.6394651183
| 11> C -2.0690105875 -0.5546981809 0.7244223255
| 12> C -1.367415168 0.8079041062 0.6454879081
| 13> C -0.1111104145 0.7192736598 -0.181392852
| 14> O 0.063744726 1.275423027 -1.2473251383
| 15> O 0.8023415509 -0.0493719207 0.3932350678
| 16> C 2.0539002755 -0.2344797122 -0.2876253887
| 17> C 3.0285276236 -0.8809779399 0.6777554232
| 18> H -3.2920792234 -0.3027867489 -1.0381897413
| 19> H -1.7479395111 -1.0879026621 -1.3478266503
| 20> H -3.0494342144 -1.9851861353 -0.5615903791
| 21> H -1.3698063695 -1.2882519296 1.1281964884
| 22> H -2.9113129615 -0.470403906 1.4117683949
| 23> H -1.0876002205 1.128742162 1.6490966059
| 24> H -2.0233388547 1.5498124547 0.1905935602
| 25> H 1.8777125842 -0.8649163867 -1.1654721905
| 26> H 2.4076316017 0.7421311667 -0.6345775281
| 27> H 3.1785731164 -0.2399747883 1.5415294226
| 28> H 2.63886948 -1.8369814977 1.0143826901
| 29> H 3.9787621748 -1.0367456831 0.1778102273
| 30> *
| 31>
| 32>                          ****END OF INPUT****

CARTESIAN COORDINATES (ANGSTROEM)
---------------------------------
  C     -2.571095   -1.012517   -0.639465
  C     -2.069011   -0.554698    0.724422
  C     -1.367415    0.807904    0.645488
  C     -0.111110    0.719274   -0.181393
  O      0.063745    1.275423   -1.247325
  O      0.802342   -0.049372    0.393235
  C      2.053900   -0.234480   -0.287625
  C      3.028528   -0.880978    0.677755
  H     -3.292079   -0.302787   -1.038190
  H     -1.747940   -1.087903   -1.347827
  H     -3.049434   -1.985186   -0.561590
  H     -1.369806   -1.288252    1.128196
  H     -2.911313   -0.470404    1.411768
  H     -1.087600    1.128742    1.649097
  H     -2.023339    1.549812    0.190594
  H      1.877713   -0.864916   -1.165472
  H      2.407632    0.742131   -0.634578
  H      3.178573   -0.239975    1.541529
  H      2.638869   -1.836981    1.014383
  H      3.978762   -1.036746    0.177810

 Total Charge           Charge          ....    0
 Multiplicity           Mult            ....    1
 Number of Electrons    NEL             ....   64
 Basis Dimension        Dim             ....  222

ORBITAL ENERGIES
----------------

  NO   OCC          E(Eh)            E(eV)
   0   2.0000     -19.002221      -517.0767
   1   2.0000     -18.943425      -515.4768
   2   2.0000     -10.161716      -276.5144
   3   2.0000     -10.084078      -274.4017
   4   2.0000     -10.035466      -273.0789
   5   2.0000     -10.029094      -272.9055
   6   2.0000     -10.018816      -272.6258
   7   2.0000     -10.011703      -272.4323
   8   2.0000      -1.079585       -29.3770
   9   2.0000      -0.987850       -26.8808
  10   2.0000      -0.771440       -20.9920
  11   2.0000      -0.733808       -19.9679
  12   2.0000      -0.672014       -18.2864
  13   2.0000      -0.609137       -16.5755
  14   2.0000      -0.563494       -15.3335
  15   2.0000      -0.532209       -14.4821
  16   2.0000      -0.471117       -12.8198
  17   2.0000      -0.454792       -12.3755
  18   2.0000      -0.448843       -12.2136
  19   2.0000      -0.420438       -11.4407
  20   2.0000      -0.406220       -11.0538
  21   2.0000      -0.375846       -10.2273
  22   2.0000      -0.373168       -10.1544
  23   2.0000      -0.363497        -9.8913
  24   2.0000      -0.349072        -9.4987
  25   2.0000      -0.329938        -8.9781
  26   2.0000      -0.320850        -8.7308
  27   2.0000      -0.312033        -8.4909
  28   2.0000      -0.307269        -8.3612
  29   2.0000      -0.302313        -8.2263
  30   2.0000      -0.276106        -7.5132
  31   2.0000      -0.247412        -6.7324
  32   0.0000      -0.023747        -0.6462
  33   0.0000       0.075496         2.0544
  34   0.0000       0.104045         2.8312
  35   0.0000       0.123378         3.3573
  36   0.0000       0.126625         3.4456

MULLIKEN ATOMIC CHARGES
-----------------------
   0 C :   -0.528500
   1 C :   -0.223577
   2 C :   -0.331353
   3 C :    0.392406
   4 O :   -0.507866
   5 O :   -0.176961
   6 C :   -0.148568
   7 C :   -0.490780
   8 H :    0.163108
   9 H :    0.162040
  10 H :    0.161757
  11 H :    0.156214
  12 H :    0.164146
  13 H :    0.185749
  14 H :    0.178631
  15 H :    0.173011
  16 H :    0.171563
  17 H :    0.165738
  18 H :    0.164448
  19 H :    0.168794
Sum of atomic charges:    0.0000000

LOEWDIN ATOMIC CHARGES
----------------------
   0 C :   -0.423289
   1 C :   -0.289132
   2 C :   -0.229227
   3 C :    0.358948
   4 O :   -0.490406
   5 O :   -0.601479
   6 C :    0.036523
   7 C :   -0.389845
   8 H :    0.156158
   9 H :    0.156216
  10 H :    0.156367
  11 H :    0.164196
  12 H :    0.160446
  13 H :    0.190036
  14 H :    0.181288
  15 H :    0.183534
  16 H :    0.186384
  17 H :    0.162474
  18 H :    0.162529
  19 H :    0.168280

  Mayer bond orders larger than 0.100000
B(  0-C ,  1-C ) :   0.8975 B(  0-C ,  8-H ) :   0.9768 B(  0-C ,  9-H ) :   0.9701
B(  0-C , 10-H ) :   0.9662 B(  1-C ,  2-C ) :   0.8767 B(  1-C , 11-H ) :   0.9731
B(  1-C , 12-H ) :   0.9611 B(  2-C ,  3-C ) :   0.9534 B(  2-C , 13-H ) :   0.9397
B(  2-C , 14-H ) :   0.9982 B(  3-C ,  4-O ) :   1.7585 B(  3-C ,  5-O ) :   1.0860
B(  5-O ,  6-C ) :   0.7893 B(  6-C ,  7-C ) :   0.9444 B(  6-C , 15-H ) :   0.9386
B(  6-C , 16-H ) :   0.9539 B(  7-C , 17-H ) :   0.9728 B(  7-C , 18-H ) :   0.9671
B(  7-C , 19-H ) :   0.9616

Dispersion correction           -0.005088996
FINAL SINGLE POINT ENERGY      -386.241519162662

DIPOLE MOMENT
-------------

Method             : SCF
Type of density    : Electron Density
Multiplicity       :   1
Irrep              :   0
Energy             :  -386.2480713950687914 Eh
Relativity type    :
Basis              : AO
                                X                 Y                 Z
Electronic contribution:      1.525957658       4.540167657      -1.223107677
Nuclear contribution   :     -1.300555629      -5.322300026       2.206775977
                        -----------------------------------------
Total Dipole Moment    :      0.225402029      -0.782132369       0.983668300
                        -----------------------------------------
Magnitude (a.u.)       :      1.276769534
Magnitude (Debye)      :      3.245290247

Rotational constants in cm-1:             0.114878             0.036964             0.033346
Rotational constants in MHz :          3443.948876          1108.147292           999.700580

                             ****ORCA TERMINATED NORMALLY****
TOTAL RUN TIME: 0 days 0 hours 0 minutes 37 seconds 691 msec
