                         Program Version 6.0.0  -   RELEASE  -
|  1> ! pbe def2-sv(p) def2/J RI DEFGRID1 loosescf d4 GCP(DFT/SV(P)) printgap
|  2> %output
|  3>     printlevel normal
|  4> end
|  5> * xyz 0 1
|  6> C -2.4598575851 -1.3312366926 -0.2319226457
|  7> C -2.5444550888 0.1536922732 0.0997064373
|  8> C -1.2793099648 0.6465735201 0.8113863352
|  9> C -0.0892280633 0.5661649821 -0.1099283964
| 10> O -0.0048428785 1.130320894 -1.1821521238
| 11> O 0.8647950384 -0.2043253944 0.3914869649
| 12> C 2.0847855985 -0.3799432744 -0.3491031605
| 13> C 3.2377459161 -0.4952722939 0.631363727
| 14> H -3.3789611535 -1.6667291836 -0.7047287958
| 15> H -1.6345991055 -1.5215817593 -0.9157557264
| 16> H -2.3000114457 -1.9159653087 0.6707447453
| 17> H -3.4036326531 0.3372175391 0.7452596502
| 18> H -2.6746561976 0.728952552 -0.8189308138
| 19> H -1.0743745851 0.0500069575 1.699276367
| 20> H -1.4077214931 1.6925257736 1.0936798399
| 21> H 1.9799126165 -1.2920998881 -0.9443736678
| 22> H 2.2055572468 0.4718096583 -1.0261370752
| 23> H 3.3316023047 0.4182685122 1.2117375149
| 24> H 3.0640191182 -1.3252894615 1.309721859
| 25> H 4.1584920693 -0.6659479467 0.0832902635
| 26> *
| 27>
| 28>                          ****END OF INPUT****

CARTESIAN COORDINATES (ANGSTROEM)
---------------------------------
  C     -2.459858   -1.331237   -0.231923
  C     -2.544455    0.153692    0.099706
  C     -1.279310    0.646574    0.811386
  C     -0.089228    0.566165   -0.109928
  O     -0.004843    1.130321   -1.182152
  O      0.864795   -0.204325    0.391487
  C      2.084786   -0.379943   -0.349103
  C      3.237746   -0.495272    0.631364
  H     -3.378961   -1.666729   -0.704729
  H     -1.634599   -1.521582   -0.915756
  H     -2.300011   -1.915965    0.670745
  H     -3.403633    0.337218    0.745260
  H     -2.674656    0.728953   -0.818931
  H     -1.074375    0.050007    1.699276
  H     -1.407721    1.692526    1.093680
  H      1.979913   -1.292100   -0.944374
  H      2.205557    0.471810   -1.026137
  H      3.331602    0.418269    1.211738
  H      3.064019   -1.325289    1.309722
  H      4.158492   -0.665948    0.083290

 Total Charge           Charge          ....    0
 Multiplicity           Mult            ....    1
 Number of Electrons    NEL             ....   64
 Basis Dimension        Dim             ....  136

ORBITAL ENERGIES
----------------

  NO   OCC          E(Eh)            E(eV)
   0   2.0000     -18.797934      -511.5178
   1   2.0000     -18.729345      -509.6514
   2   2.0000     -10.003846      -272.2185
   3   2.0000      -9.945711      -270.6366
   4   2.0000      -9.895337      -269.2658
   5   2.0000      -9.891248      -269.1545
   6   2.0000      -9.889598      -269.1096
   7   2.0000      -9.877212      -268.7726
   8   2.0000      -1.003678       -27.3115
   9   2.0000      -0.906956       -24.6795
  10   2.0000      -0.727871       -19.8064
  11   2.0000      -0.699514       -19.0347
  12   2.0000      -0.636428       -17.3181
  13   2.0000      -0.585584       -15.9346
  14   2.0000      -0.531054       -14.4507
  15   2.0000      -0.501690       -13.6517
  16   2.0000      -0.453699       -12.3458
  17   2.0000      -0.437778       -11.9125
  18   2.0000      -0.412641       -11.2285
  19   2.0000      -0.405228       -11.0268
  20   2.0000      -0.389459       -10.5977
  21   2.0000      -0.365641        -9.9496
  22   2.0000      -0.361912        -9.8481
  23   2.0000      -0.351536        -9.5658
  24   2.0000      -0.346120        -9.4184
  25   2.0000      -0.326276        -8.8784
  26   2.0000      -0.306454        -8.3390
  27   2.0000      -0.297373        -8.0919
  28   2.0000      -0.296872        -8.0783
  29   2.0000      -0.288515        -7.8509
  30   2.0000      -0.254718        -6.9312
  31   2.0000      -0.216162        -5.8821
  32   0.0000      -0.019242        -0.5236
  33   0.0000       0.039036         1.0622
  34   0.0000       0.052320         1.4237
  35   0.0000       0.070997         1.9319
  36   0.0000       0.080801         2.1987

MULLIKEN ATOMIC CHARGES
-----------------------
   0 C :   -0.288354
   1 C :   -0.204436
   2 C :   -0.118624
   3 C :    0.087160
   4 O :   -0.211163
   5 O :   -0.237780
   6 C :   -0.030589
   7 C :   -0.281567
   8 H :    0.107868
   9 H :    0.116294
  10 H :    0.099150
  11 H :    0.092486
  12 H :    0.108574
  13 H :    0.091627
  14 H :    0.111285
  15 H :    0.103459
  16 H :    0.115066
  17 H :    0.113941
  18 H :    0.114220
  19 H :    0.111382
Sum of atomic charges:    0.0000000

LOEWDIN ATOMIC CHARGES
----------------------
   0 C :   -0.342555
   1 C :   -0.226510
   2 C :   -0.246137
   3 C :    0.034615
   4 O :   -0.174378
   5 O :   -0.067214
   6 C :   -0.112736
   7 C :   -0.350913
   8 H :    0.121626
   9 H :    0.120308
  10 H :    0.117566
  11 H :    0.117981
  12 H :    0.124646
  13 H :    0.125557
  14 H :    0.141143
  15 H :    0.115795
  16 H :    0.119643
  17 H :    0.126099
  18 H :    0.125632
  19 H :    0.129831

  Mayer bond orders larger than 0.100000
B(  0-C ,  1-C ) :   1.1545 B(  0-C ,  8-H ) :   0.9518 B(  0-C ,  9-H ) :   0.9484
B(  0-C , 10-H ) :   0.9538 B(  1-C ,  2-C ) :   1.1129 B(  1-C , 11-H ) :   0.9287
B(  1-C , 12-H ) :   0.9208 B(  2-C ,  3-C ) :   1.0160 B(  2-C , 13-H ) :   0.9105
B(  2-C , 14-H ) :   0.8936 B(  3-C ,  4-O ) :   2.0525 B(  3-C ,  5-O ) :   1.2127
B(  5-O ,  6-C ) :   0.9124 B(  6-C ,  7-C ) :   1.1599 B(  6-C , 15-H ) :   0.9352
B(  6-C , 16-H ) :   0.9135 B(  7-C , 17-H ) :   0.9524 B(  7-C , 18-H ) :   0.9488
B(  7-C , 19-H ) :   0.9449

Dispersion correction           -0.014931082
FINAL SINGLE POINT ENERGY      -385.457532201966

DIPOLE MOMENT
-------------

Method             : SCF
Type of density    : Electron Density
Multiplicity       :   1
Irrep              :   0
Energy             :  -385.5325300874837922 Eh
Relativity type    :
Basis              : AO
                                X                 Y                 Z
Electronic contribution:      1.309308243       3.945193437      -1.716365783
Nuclear contribution   :     -1.051479719      -4.385175744       2.243426136
                        -----------------------------------------
Total Dipole Moment    :      0.257828524      -0.439982307       0.527060353
                        -----------------------------------------
Magnitude (a.u.)       :      0.733384342
Magnitude (Debye)      :      1.864114855

Rotational constants in cm-1:             0.135598             0.034042             0.031910
Rotational constants in MHz :          4065.113000          1020.538560           956.637169

                             ****ORCA TERMINATED NORMALLY****
TOTAL RUN TIME: 0 days 0 hours 0 minutes 10 seconds 640 msec
