                         Program Version 6.0.0  -   RELEASE  -
|  1> ! pbe def2-sv(p) def2/J RI DEFGRID1 loosescf d4 GCP(DFT/SV(P)) printgap
|  2> %output
|  3>     printlevel normal
|  4> end
|  5> * xyz 0 1
|  6> C -2.739910845 -0.2864494811 -0.8040467511
|  7> C -1.8825599053 -0.7978704349 0.3485282689
|  8> C -1.2542457396 0.3238866816 1.1769637689
|  9> C -0.315839211 1.228105194 0.366358981
| 10> C 0.7827791045 0.4307538204 -0.2862755435
| 11> O 0.9404137506 0.320919677 -1.4851379433
| 12> O 1.5698802193 -0.1408079155 0.6165136986
| 13> C 2.6633889419 -0.9501446909 0.1760458398
| 14> H -3.2708430877 -1.1120755294 -1.271364865
| 15> H -3.4707924063 0.4343296005 -0.4453935406
| 16> H -2.1224599283 0.186713378 -1.5637281826
| 17> H -2.500570955 -1.4065833783 1.0118214521
| 18> H -1.0946154823 -1.4412670769 -0.0514713551
| 19> H -0.6883910242 -0.1174214841 1.9989254758
| 20> H -2.0450915708 0.9448580994 1.5999168681
| 21> H 0.1457350822 1.951702466 1.0388487145
| 22> H -0.8613743247 1.7576451172 -0.4128676774
| 23> H 3.5554456063 -0.59263238 0.6856642521
| 24> H 2.7757632488 -0.8652699994 -0.9055074674
| 25> H 2.4571083041 -1.9827652351 0.4540775004
| 26> *
| 27>
| 28>                          ****END OF INPUT****

CARTESIAN COORDINATES (ANGSTROEM)
---------------------------------
  C     -2.739911   -0.286449   -0.804047
  C     -1.882560   -0.797870    0.348528
  C     -1.254246    0.323887    1.176964
  C     -0.315839    1.228105    0.366359
  C      0.782779    0.430754   -0.286276
  O      0.940414    0.320920   -1.485138
  O      1.569880   -0.140808    0.616514
  C      2.663389   -0.950145    0.176046
  H     -3.270843   -1.112076   -1.271365
  H     -3.470792    0.434330   -0.445394
  H     -2.122460    0.186713   -1.563728
  H     -2.500571   -1.406583    1.011821
  H     -1.094615   -1.441267   -0.051471
  H     -0.688391   -0.117421    1.998925
  H     -2.045092    0.944858    1.599917
  H      0.145735    1.951702    1.038849
  H     -0.861374    1.757645   -0.412868
  H      3.555446   -0.592632    0.685664
  H      2.775763   -0.865270   -0.905507
  H      2.457108   -1.982765    0.454078

 Total Charge           Charge          ....    0
 Multiplicity           Mult            ....    1
 Number of Electrons    NEL             ....   64
 Basis Dimension        Dim             ....  136

ORBITAL ENERGIES
----------------

  NO   OCC          E(Eh)            E(eV)
   0   2.0000     -18.800145      -511.5779
   1   2.0000     -18.731830      -509.7190
   2   2.0000     -10.005840      -272.2727
   3   2.0000      -9.940787      -270.5026
   4   2.0000      -9.896054      -269.2853
   5   2.0000      -9.892044      -269.1762
   6   2.0000      -9.885635      -269.0018
   7   2.0000      -9.872269      -268.6381
   8   2.0000      -1.005371       -27.3575
   9   2.0000      -0.908699       -24.7270
  10   2.0000      -0.733577       -19.9616
  11   2.0000      -0.682678       -18.5766
  12   2.0000      -0.642678       -17.4882
  13   2.0000      -0.585839       -15.9415
  14   2.0000      -0.522176       -14.2091
  15   2.0000      -0.501482       -13.6460
  16   2.0000      -0.448193       -12.1960
  17   2.0000      -0.437186       -11.8964
  18   2.0000      -0.419409       -11.4127
  19   2.0000      -0.409539       -11.1441
  20   2.0000      -0.398986       -10.8570
  21   2.0000      -0.370193       -10.0735
  22   2.0000      -0.361956        -9.8493
  23   2.0000      -0.348574        -9.4852
  24   2.0000      -0.340660        -9.2698
  25   2.0000      -0.326187        -8.8760
  26   2.0000      -0.299930        -8.1615
  27   2.0000      -0.291946        -7.9442
  28   2.0000      -0.286523        -7.7967
  29   2.0000      -0.285404        -7.7662
  30   2.0000      -0.255767        -6.9598
  31   2.0000      -0.216695        -5.8966
  32   0.0000      -0.019380        -0.5274
  33   0.0000       0.036424         0.9912
  34   0.0000       0.054261         1.4765
  35   0.0000       0.074766         2.0345
  36   0.0000       0.079431         2.1614

MULLIKEN ATOMIC CHARGES
-----------------------
   0 C :   -0.296398
   1 C :   -0.188987
   2 C :   -0.190151
   3 C :   -0.117137
   4 C :    0.082328
   5 O :   -0.201266
   6 O :   -0.246055
   7 C :   -0.130479
   8 H :    0.103593
   9 H :    0.095744
  10 H :    0.121579
  11 H :    0.087913
  12 H :    0.102651
  13 H :    0.097388
  14 H :    0.089973
  15 H :    0.107077
  16 H :    0.105137
  17 H :    0.122326
  18 H :    0.133714
  19 H :    0.121049
Sum of atomic charges:    0.0000000

LOEWDIN ATOMIC CHARGES
----------------------
   0 C :   -0.345200
   1 C :   -0.237675
   2 C :   -0.221895
   3 C :   -0.244122
   4 C :    0.034783
   5 O :   -0.168672
   6 O :   -0.074850
   7 C :   -0.209241
   8 H :    0.121018
   9 H :    0.115477
  10 H :    0.122724
  11 H :    0.117309
  12 H :    0.116972
  13 H :    0.119929
  14 H :    0.118004
  15 H :    0.138478
  16 H :    0.132913
  17 H :    0.120456
  18 H :    0.124268
  19 H :    0.119325

  Mayer bond orders larger than 0.100000
B(  0-C ,  1-C ) :   1.1533 B(  0-C ,  8-H ) :   0.9510 B(  0-C ,  9-H ) :   0.9554
B(  0-C , 10-H ) :   0.9456 B(  1-C ,  2-C ) :   1.1341 B(  1-C , 11-H ) :   0.9253
B(  1-C , 12-H ) :   0.9138 B(  2-C ,  3-C ) :   1.1081 B(  2-C , 13-H ) :   0.9196
B(  2-C , 14-H ) :   0.9216 B(  3-C ,  4-C ) :   1.0270 B(  3-C , 15-H ) :   0.8947
B(  3-C , 16-H ) :   0.9059 B(  4-C ,  5-O ) :   2.0673 B(  4-C ,  6-O ) :   1.1901
B(  6-O ,  7-C ) :   0.9386 B(  7-C , 17-H ) :   0.9614 B(  7-C , 18-H ) :   0.9289
B(  7-C , 19-H ) :   0.9597

Dispersion correction           -0.015926742
FINAL SINGLE POINT ENERGY      -385.451471913811

DIPOLE MOMENT
-------------

Method             : SCF
Type of density    : Electron Density
Multiplicity       :   1
Irrep              :   0
Energy             :  -385.5264347902274835 Eh
Relativity type    :
Basis              : AO
                                X                 Y                 Z
Electronic contribution:      6.789695902       1.897020996      -1.278669121
Nuclear contribution   :     -6.642605025      -2.101418044       1.993784512
                        -----------------------------------------
Total Dipole Moment    :      0.147090877      -0.204397048       0.715115391
                        -----------------------------------------
Magnitude (a.u.)       :      0.758158230
Magnitude (Debye)      :      1.927085074

Rotational constants in cm-1:             0.115537             0.039437             0.037334
Rotational constants in MHz :          3463.709672          1182.289640          1119.239398

                             ****ORCA TERMINATED NORMALLY****
TOTAL RUN TIME: 0 days 0 hours 0 minutes 10 seconds 859 msec
