                         Program Version 6.0.0  -   RELEASE  -
|  1> ! pbe def2-sv(p) def2/J RI DEFGRID1 loosescf d4 GCP(DFT/SV(P)) printgap
|  2> %output
|  3>     printlevel normal
|  4> end
|  5> * xyz 0 1
|  6> C 2.2251897493 1.0088297684 -0.6563946125
|  7> C 1.1785844675 0.3480607259 0.2406505712
|  8> C 1.7788631296 -0.8891880218 0.925185866
|  9> N 0.0043815076 0.072067146 -0.5728543939
| 10> C -1.2012218036 -0.3966189016 0.0989262752
| 11> C -2.2043240125 -0.819766877 -0.9733173449
| 12> C -1.7969158296 0.7194898854 0.9579109483
| 13> H 1.7903507301 1.8669773332 -1.1598135016
| 14> H 3.0761480912 1.3373055412 -0.066347298
| 15> H 2.5737629028 0.3053696605 -1.4093832067
| 16> H 0.8790590729 1.0666518393 1.0107857524
| 17> H 2.0503757676 -1.6361735119 0.1808759354
| 18> H 1.0705669518 -1.3335139711 1.6208721795
| 19> H 2.6710627223 -0.611498284 1.4796351558
| 20> H 0.2599800884 -0.5913198758 -1.2983863116
| 21> H -1.0036688309 -1.2708133798 0.7499312104
| 22> H -1.806771803 -1.6376502788 -1.5705209103
| 23> H -3.1319179195 -1.1487890386 -0.5131130769
| 24> H -2.4128706242 0.0203722045 -1.6298210878
| 25> H -2.7747088589 0.4203719131 1.3254149072
| 26> H -1.9014049651 1.6206874372 0.3604832559
| 27> H -1.1646094257 0.9384052666 1.8140557337
| 28> *
| 29>
| 30>                          ****END OF INPUT****

CARTESIAN COORDINATES (ANGSTROEM)
---------------------------------
  C      2.225190    1.008830   -0.656395
  C      1.178584    0.348061    0.240651
  C      1.778863   -0.889188    0.925186
  N      0.004382    0.072067   -0.572854
  C     -1.201222   -0.396619    0.098926
  C     -2.204324   -0.819767   -0.973317
  C     -1.796916    0.719490    0.957911
  H      1.790351    1.866977   -1.159814
  H      3.076148    1.337306   -0.066347
  H      2.573763    0.305370   -1.409383
  H      0.879059    1.066652    1.010786
  H      2.050376   -1.636174    0.180876
  H      1.070567   -1.333514    1.620872
  H      2.671063   -0.611498    1.479635
  H      0.259980   -0.591320   -1.298386
  H     -1.003669   -1.270813    0.749931
  H     -1.806772   -1.637650   -1.570521
  H     -3.131918   -1.148789   -0.513113
  H     -2.412871    0.020372   -1.629821
  H     -2.774709    0.420372    1.325415
  H     -1.901405    1.620687    0.360483
  H     -1.164609    0.938405    1.814056

 Total Charge           Charge          ....    0
 Multiplicity           Mult            ....    1
 Number of Electrons    NEL             ....   58
 Basis Dimension        Dim             ....  128

ORBITAL ENERGIES
----------------

  NO   OCC          E(Eh)            E(eV)
   0   2.0000     -13.960532      -379.8854
   1   2.0000      -9.913965      -269.7727
   2   2.0000      -9.913322      -269.7552
   3   2.0000      -9.870809      -268.5984
   4   2.0000      -9.870181      -268.5813
   5   2.0000      -9.867716      -268.5142
   6   2.0000      -9.867302      -268.5029
   7   2.0000      -0.818386       -22.2694
   8   2.0000      -0.706938       -19.2368
   9   2.0000      -0.650142       -17.6913
  10   2.0000      -0.610903       -16.6235
  11   2.0000      -0.608835       -16.5673
  12   2.0000      -0.523435       -14.2434
  13   2.0000      -0.502142       -13.6640
  14   2.0000      -0.439227       -11.9520
  15   2.0000      -0.410863       -11.1802
  16   2.0000      -0.401844       -10.9347
  17   2.0000      -0.382994       -10.4218
  18   2.0000      -0.359663        -9.7869
  19   2.0000      -0.353932        -9.6310
  20   2.0000      -0.341042        -9.2802
  21   2.0000      -0.338236        -9.2039
  22   2.0000      -0.327603        -8.9145
  23   2.0000      -0.309937        -8.4338
  24   2.0000      -0.302309        -8.2262
  25   2.0000      -0.292594        -7.9619
  26   2.0000      -0.286824        -7.8049
  27   2.0000      -0.280377        -7.6294
  28   2.0000      -0.169436        -4.6106
  29   0.0000       0.029590         0.8052
  30   0.0000       0.057216         1.5569
  31   0.0000       0.058949         1.6041
  32   0.0000       0.074693         2.0325
  33   0.0000       0.091877         2.5001

MULLIKEN ATOMIC CHARGES
-----------------------
   0 C :   -0.231837
   1 C :   -0.094447
   2 C :   -0.252779
   3 N :   -0.333052
   4 C :   -0.067377
   5 C :   -0.257675
   6 C :   -0.250179
   7 H :    0.103987
   8 H :    0.095183
   9 H :    0.085420
  10 H :    0.075059
  11 H :    0.083760
  12 H :    0.109980
  13 H :    0.094685
  14 H :    0.190925
  15 H :    0.056092
  16 H :    0.094759
  17 H :    0.097834
  18 H :    0.101428
  19 H :    0.093361
  20 H :    0.098052
  21 H :    0.106819
Sum of atomic charges:    0.0000000

LOEWDIN ATOMIC CHARGES
----------------------
   0 C :   -0.335367
   1 C :   -0.106708
   2 C :   -0.350422
   3 N :   -0.246136
   4 C :   -0.102339
   5 C :   -0.335693
   6 C :   -0.339215
   7 H :    0.120892
   8 H :    0.118136
   9 H :    0.113111
  10 H :    0.112049
  11 H :    0.113306
  12 H :    0.117057
  13 H :    0.119928
  14 H :    0.202608
  15 H :    0.088548
  16 H :    0.113520
  17 H :    0.119804
  18 H :    0.120996
  19 H :    0.118883
  20 H :    0.121320
  21 H :    0.115721

  Mayer bond orders larger than 0.100000
B(  0-C ,  1-C ) :   1.1218 B(  0-C ,  7-H ) :   0.9470 B(  0-C ,  8-H ) :   0.9497
B(  0-C ,  9-H ) :   0.9475 B(  1-C ,  2-C ) :   1.0877 B(  1-C ,  3-N ) :   1.0511
B(  1-C , 10-H ) :   0.8980 B(  2-C , 11-H ) :   0.9433 B(  2-C , 12-H ) :   0.9428
B(  2-C , 13-H ) :   0.9435 B(  3-N ,  4-C ) :   1.0444 B(  3-N , 14-H ) :   0.8685
B(  4-C ,  5-C ) :   1.1135 B(  4-C ,  6-C ) :   1.1106 B(  4-C , 15-H ) :   0.8864
B(  5-C , 16-H ) :   0.9478 B(  5-C , 17-H ) :   0.9484 B(  5-C , 18-H ) :   0.9458
B(  6-C , 19-H ) :   0.9467 B(  6-C , 20-H ) :   0.9414 B(  6-C , 21-H ) :   0.9423

Dispersion correction           -0.017394465
FINAL SINGLE POINT ENERGY      -291.674522012403

DIPOLE MOMENT
-------------

Method             : SCF
Type of density    : Electron Density
Multiplicity       :   1
Irrep              :   0
Energy             :  -291.7539984859613469 Eh
Relativity type    :
Basis              : AO
                                X                 Y                 Z
Electronic contribution:     -0.077339458       0.325861857      -0.736943822
Nuclear contribution   :      0.164534398      -0.612805256       0.836214061
                        -----------------------------------------
Total Dipole Moment    :      0.087194940      -0.286943398       0.099270239
                        -----------------------------------------
Magnitude (a.u.)       :      0.315901965
Magnitude (Debye)      :      0.802958984

Rotational constants in cm-1:             0.138464             0.047430             0.046361
Rotational constants in MHz :          4151.053015          1421.917376          1389.878334

                             ****ORCA TERMINATED NORMALLY****
TOTAL RUN TIME: 0 days 0 hours 0 minutes 10 seconds 356 msec
