                         Program Version 6.0.0  -   RELEASE  -
|  1> ! r2scan-3c def2/J RI DEFGRID2 scfconv6 printgap
|  2> %output
|  3>     printlevel normal
|  4> end
|  5> * xyz 0 1
|  6> C -4.6501069499 -0.9545463644 0.186555533
|  7> C -3.9746330129 -2.159215479 0.0474813324
|  8> C -2.5973986489 -2.1709766152 -0.0719158767
|  9> C -1.8708993426 -0.9820139753 -0.0568722386
| 10> C -2.5536039527 0.2314318871 0.0833362457
| 11> C -3.9421122217 0.2321182321 0.2051035372
| 12> C -1.8238249727 1.5050317754 0.1058930916
| 13> O -2.4083930924 2.578058899 0.2439980823
| 14> C -0.360468899 1.4361254999 -0.0499094347
| 15> C 0.3255192208 2.6381358263 -0.0471630134
| 16> C 1.7117703038 2.6586566077 -0.1790329466
| 17> C 2.4067355863 1.489040958 -0.3277578385
| 18> C 1.7471303694 0.2352113232 -0.3588762193
| 19> C 0.3258492211 0.2071323704 -0.1991500458
| 20> C -0.4017709936 -1.0430551916 -0.1869344647
| 21> O 0.1464615064 -2.156619999 -0.2770169472
| 22> N 2.4311725672 -0.9032956415 -0.5345966469
| 23> C 3.8446534867 -1.0480668158 -0.7719358511
| 24> C 4.6510075458 -1.2555494956 0.5249435257
| 25> O 4.716276049 -0.1020950071 1.3329291346
| 26> H -5.7245500509 -0.94256603 0.2802669113
| 27> H -4.5227165839 -3.0881852716 0.032456292
| 28> H -2.0538414914 -3.097899264 -0.1800014144
| 29> H -4.4409446191 1.1839389339 0.3130089289
| 30> H -0.2396827267 3.5500679783 0.0687234511
| 31> H 2.2373123764 3.6002257447 -0.1567768906
| 32> H 3.4813588249 1.5202186601 -0.3982990364
| 33> H 1.8729463968 -1.7536813399 -0.4872420849
| 34> H 4.2341817567 -0.1774968352 -1.3012719422
| 35> H 3.9885633817 -1.9290516528 -1.3988632612
| 36> H 5.6847611601 -1.486278134 0.260238204
| 37> H 4.2328177015 -2.0988206114 1.0862741768
| 38> H 3.8540990719 0.0545211721 1.7396323486
| 39> *
| 40>
| 41>                          ****END OF INPUT****

CARTESIAN COORDINATES (ANGSTROEM)
---------------------------------
  C     -4.650107   -0.954546    0.186556
  C     -3.974633   -2.159215    0.047481
  C     -2.597399   -2.170977   -0.071916
  C     -1.870899   -0.982014   -0.056872
  C     -2.553604    0.231432    0.083336
  C     -3.942112    0.232118    0.205104
  C     -1.823825    1.505032    0.105893
  O     -2.408393    2.578059    0.243998
  C     -0.360469    1.436125   -0.049909
  C      0.325519    2.638136   -0.047163
  C      1.711770    2.658657   -0.179033
  C      2.406736    1.489041   -0.327758
  C      1.747130    0.235211   -0.358876
  C      0.325849    0.207132   -0.199150
  C     -0.401771   -1.043055   -0.186934
  O      0.146462   -2.156620   -0.277017
  N      2.431173   -0.903296   -0.534597
  C      3.844653   -1.048067   -0.771936
  C      4.651008   -1.255549    0.524944
  O      4.716276   -0.102095    1.332929
  H     -5.724550   -0.942566    0.280267
  H     -4.522717   -3.088185    0.032456
  H     -2.053841   -3.097899   -0.180001
  H     -4.440945    1.183939    0.313009
  H     -0.239683    3.550068    0.068723
  H      2.237312    3.600226   -0.156777
  H      3.481359    1.520219   -0.398299
  H      1.872946   -1.753681   -0.487242
  H      4.234182   -0.177497   -1.301272
  H      3.988563   -1.929052   -1.398863
  H      5.684761   -1.486278    0.260238
  H      4.232818   -2.098821    1.086274
  H      3.854099    0.054521    1.739632

 Total Charge           Charge          ....    0
 Multiplicity           Mult            ....    1
 Number of Electrons    NEL             ....  140
 Basis Dimension        Dim             ....  465

ORBITAL ENERGIES
----------------

  NO   OCC          E(Eh)            E(eV)
   0   2.0000     -18.964418      -516.0480
   1   2.0000     -18.943583      -515.4811
   2   2.0000     -18.938124      -515.3326
   3   2.0000     -14.193166      -386.2157
   4   2.0000     -10.125792      -275.5368
   5   2.0000     -10.122425      -275.4452
   6   2.0000     -10.106809      -275.0203
   7   2.0000     -10.093731      -274.6644
   8   2.0000     -10.084459      -274.4121
   9   2.0000     -10.060188      -273.7516
  10   2.0000     -10.059759      -273.7400
  11   2.0000     -10.058485      -273.7053
  12   2.0000     -10.057794      -273.6865
  13   2.0000     -10.055767      -273.6313
  14   2.0000     -10.054760      -273.6039
  15   2.0000     -10.053774      -273.5771
  16   2.0000     -10.051099      -273.5043
  17   2.0000     -10.050646      -273.4920
  18   2.0000     -10.050531      -273.4888
  19   2.0000     -10.041811      -273.2516
  20   2.0000      -1.008060       -27.4307
  21   2.0000      -1.002542       -27.2806
  22   2.0000      -1.002190       -27.2710
  23   2.0000      -0.931443       -25.3458
  24   2.0000      -0.851724       -23.1766
  25   2.0000      -0.835380       -22.7319
  26   2.0000      -0.775429       -21.1005
  27   2.0000      -0.751391       -20.4464
  28   2.0000      -0.738048       -20.0833
  29   2.0000      -0.733021       -19.9465
  30   2.0000      -0.701155       -19.0794
  31   2.0000      -0.652438       -17.7538
  32   2.0000      -0.635797       -17.3009
  33   2.0000      -0.617483       -16.8026
  34   2.0000      -0.605162       -16.4673
  35   2.0000      -0.571355       -15.5474
  36   2.0000      -0.554536       -15.0897
  37   2.0000      -0.522769       -14.2253
  38   2.0000      -0.518769       -14.1164
  39   2.0000      -0.501686       -13.6516
  40   2.0000      -0.489260       -13.3134
  41   2.0000      -0.468220       -12.7409
  42   2.0000      -0.461429       -12.5561
  43   2.0000      -0.449671       -12.2362
  44   2.0000      -0.440293       -11.9810
  45   2.0000      -0.438918       -11.9436
  46   2.0000      -0.428786       -11.6678
  47   2.0000      -0.416950       -11.3458
  48   2.0000      -0.408211       -11.1080
  49   2.0000      -0.404539       -11.0081
  50   2.0000      -0.400786       -10.9060
  51   2.0000      -0.394187       -10.7264
  52   2.0000      -0.384159       -10.4535
  53   2.0000      -0.377513       -10.2727
  54   2.0000      -0.372947       -10.1484
  55   2.0000      -0.365854        -9.9554
  56   2.0000      -0.354999        -9.6600
  57   2.0000      -0.347616        -9.4591
  58   2.0000      -0.337550        -9.1852
  59   2.0000      -0.332578        -9.0499
  60   2.0000      -0.324170        -8.8211
  61   2.0000      -0.317537        -8.6406
  62   2.0000      -0.299606        -8.1527
  63   2.0000      -0.262353        -7.1390
  64   2.0000      -0.257596        -7.0096
  65   2.0000      -0.252427        -6.8689
  66   2.0000      -0.251024        -6.8307
  67   2.0000      -0.235612        -6.4113
  68   2.0000      -0.223044        -6.0693
  69   2.0000      -0.197209        -5.3663
  70   0.0000      -0.130290        -3.5454
  71   0.0000      -0.080289        -2.1848
  72   0.0000      -0.051271        -1.3952
  73   0.0000      -0.029878        -0.8130
  74   0.0000       0.021138         0.5752

MULLIKEN ATOMIC CHARGES
-----------------------
   0 C :   -0.130887
   1 C :   -0.127230
   2 C :   -0.226988
   3 C :    0.188043
   4 C :    0.137775
   5 C :   -0.215556
   6 C :    0.035332
   7 O :   -0.354148
   8 C :    0.193546
   9 C :   -0.247615
  10 C :   -0.152381
  11 C :   -0.291640
  12 C :    0.252125
  13 C :   -0.130344
  14 C :    0.012731
  15 O :   -0.438794
  16 N :   -0.018271
  17 C :   -0.319748
  18 C :   -0.134072
  19 O :   -0.417826
  20 H :    0.149161
  21 H :    0.148818
  22 H :    0.182218
  23 H :    0.181983
  24 H :    0.185475
  25 H :    0.148516
  26 H :    0.167959
  27 H :    0.303693
  28 H :    0.164005
  29 H :    0.155158
  30 H :    0.144441
  31 H :    0.136649
  32 H :    0.317874
Sum of atomic charges:   -0.0000000

LOEWDIN ATOMIC CHARGES
----------------------
   0 C :   -0.143034
   1 C :   -0.140089
   2 C :   -0.102087
   3 C :   -0.025980
   4 C :   -0.035607
   5 C :   -0.096770
   6 C :    0.269306
   7 O :   -0.479797
   8 C :   -0.024306
   9 C :   -0.122736
  10 C :   -0.127064
  11 C :   -0.143464
  12 C :    0.196409
  13 C :   -0.037480
  14 C :    0.269549
  15 O :   -0.540924
  16 N :   -0.676766
  17 C :   -0.026051
  18 C :    0.024970
  19 O :   -0.599627
  20 H :    0.170726
  21 H :    0.170575
  22 H :    0.192830
  23 H :    0.191942
  24 H :    0.193908
  25 H :    0.172829
  26 H :    0.183587
  27 H :    0.295861
  28 H :    0.186106
  29 H :    0.188857
  30 H :    0.179273
  31 H :    0.163310
  32 H :    0.271747

  Mayer bond orders larger than 0.100000
B(  0-C ,  1-C ) :   1.3216 B(  0-C ,  5-C ) :   1.3570 B(  0-C , 20-H ) :   0.9558
B(  1-C ,  2-C ) :   1.3504 B(  1-C , 21-H ) :   0.9557 B(  2-C ,  3-C ) :   1.3548
B(  2-C , 15-O ) :   0.1027 B(  2-C , 22-H ) :   0.9597 B(  3-C ,  4-C ) :   1.5187
B(  3-C , 14-C ) :   0.9211 B(  3-C , 15-O ) :  -0.2029 B(  4-C ,  5-C ) :   1.3503
B(  4-C ,  6-C ) :   0.8553 B(  4-C ,  7-O ) :  -0.2229 B(  5-C ,  7-O ) :   0.1082
B(  5-C , 23-H ) :   0.9634 B(  6-C ,  7-O ) :   2.0981 B(  6-C ,  8-C ) :   0.8630
B(  7-O ,  8-C ) :  -0.2159 B(  7-O ,  9-C ) :   0.1233 B(  8-C ,  9-C ) :   1.4030
B(  8-C , 13-C ) :   1.2829 B(  9-C , 10-C ) :   1.2347 B(  9-C , 24-H ) :   0.9660
B( 10-C , 11-C ) :   1.4017 B( 10-C , 25-H ) :   0.9709 B( 11-C , 12-C ) :   1.1264
B( 11-C , 26-H ) :   0.9464 B( 12-C , 13-C ) :   1.2179 B( 12-C , 14-C ) :  -0.1117
B( 12-C , 16-N ) :   1.2992 B( 13-C , 14-C ) :   0.9381 B( 13-C , 15-O ) :  -0.1328
B( 14-C , 15-O ) :   1.8909 B( 16-N , 17-C ) :   0.8281 B( 16-N , 27-H ) :   0.8337
B( 17-C , 18-C ) :   0.9041 B( 17-C , 28-H ) :   0.9673 B( 17-C , 29-H ) :   0.9589
B( 18-C , 19-O ) :   0.9720 B( 18-C , 30-H ) :   0.9792 B( 18-C , 31-H ) :   0.9764
B( 19-O , 32-H ) :   0.8815

Dispersion correction           -0.015814282
FINAL SINGLE POINT ENERGY      -897.786929787960

DIPOLE MOMENT
-------------

Method             : SCF
Type of density    : Electron Density
Multiplicity       :   1
Irrep              :   0
Energy             :  -897.7874511399941184 Eh
Relativity type    :
Basis              : AO
                                X                 Y                 Z
Electronic contribution:    -11.329041503       3.539613627      -0.144306302
Nuclear contribution   :     11.874701352      -4.376810843      -0.116771632
                        -----------------------------------------
Total Dipole Moment    :      0.545659849      -0.837197216      -0.261077934
                        -----------------------------------------
Magnitude (a.u.)       :      1.032862787
Magnitude (Debye)      :      2.625328565

Rotational constants in cm-1:             0.022695             0.007483             0.005856
Rotational constants in MHz :           680.377970           224.320306           175.571865

                             ****ORCA TERMINATED NORMALLY****
TOTAL RUN TIME: 0 days 0 hours 2 minutes 10 seconds 335 msec
