                         Program Version 6.0.0  -   RELEASE  -
|  1> ! r2scan-3c def2/J RI DEFGRID2 scfconv6 printgap
|  2> %output
|  3>     printlevel normal
|  4> end
|  5> %cpcm
|  6>     smd true
|  7>     smdsolvent "water"
|  8> end
|  9> * xyz 0 1
| 10> C -4.6501069499 -0.9545463644 0.186555533
| 11> C -3.9746330129 -2.159215479 0.0474813324
| 12> C -2.5973986489 -2.1709766152 -0.0719158767
| 13> C -1.8708993426 -0.9820139753 -0.0568722386
| 14> C -2.5536039527 0.2314318871 0.0833362457
| 15> C -3.9421122217 0.2321182321 0.2051035372
| 16> C -1.8238249727 1.5050317754 0.1058930916
| 17> O -2.4083930924 2.578058899 0.2439980823
| 18> C -0.360468899 1.4361254999 -0.0499094347
| 19> C 0.3255192208 2.6381358263 -0.0471630134
| 20> C 1.7117703038 2.6586566077 -0.1790329466
| 21> C 2.4067355863 1.489040958 -0.3277578385
| 22> C 1.7471303694 0.2352113232 -0.3588762193
| 23> C 0.3258492211 0.2071323704 -0.1991500458
| 24> C -0.4017709936 -1.0430551916 -0.1869344647
| 25> O 0.1464615064 -2.156619999 -0.2770169472
| 26> N 2.4311725672 -0.9032956415 -0.5345966469
| 27> C 3.8446534867 -1.0480668158 -0.7719358511
| 28> C 4.6510075458 -1.2555494956 0.5249435257
| 29> O 4.716276049 -0.1020950071 1.3329291346
| 30> H -5.7245500509 -0.94256603 0.2802669113
| 31> H -4.5227165839 -3.0881852716 0.032456292
| 32> H -2.0538414914 -3.097899264 -0.1800014144
| 33> H -4.4409446191 1.1839389339 0.3130089289
| 34> H -0.2396827267 3.5500679783 0.0687234511
| 35> H 2.2373123764 3.6002257447 -0.1567768906
| 36> H 3.4813588249 1.5202186601 -0.3982990364
| 37> H 1.8729463968 -1.7536813399 -0.4872420849
| 38> H 4.2341817567 -0.1774968352 -1.3012719422
| 39> H 3.9885633817 -1.9290516528 -1.3988632612
| 40> H 5.6847611601 -1.486278134 0.260238204
| 41> H 4.2328177015 -2.0988206114 1.0862741768
| 42> H 3.8540990719 0.0545211721 1.7396323486
| 43> *
| 44>
| 45>                          ****END OF INPUT****

CARTESIAN COORDINATES (ANGSTROEM)
---------------------------------
  C     -4.650107   -0.954546    0.186556
  C     -3.974633   -2.159215    0.047481
  C     -2.597399   -2.170977   -0.071916
  C     -1.870899   -0.982014   -0.056872
  C     -2.553604    0.231432    0.083336
  C     -3.942112    0.232118    0.205104
  C     -1.823825    1.505032    0.105893
  O     -2.408393    2.578059    0.243998
  C     -0.360469    1.436125   -0.049909
  C      0.325519    2.638136   -0.047163
  C      1.711770    2.658657   -0.179033
  C      2.406736    1.489041   -0.327758
  C      1.747130    0.235211   -0.358876
  C      0.325849    0.207132   -0.199150
  C     -0.401771   -1.043055   -0.186934
  O      0.146462   -2.156620   -0.277017
  N      2.431173   -0.903296   -0.534597
  C      3.844653   -1.048067   -0.771936
  C      4.651008   -1.255549    0.524944
  O      4.716276   -0.102095    1.332929
  H     -5.724550   -0.942566    0.280267
  H     -4.522717   -3.088185    0.032456
  H     -2.053841   -3.097899   -0.180001
  H     -4.440945    1.183939    0.313009
  H     -0.239683    3.550068    0.068723
  H      2.237312    3.600226   -0.156777
  H      3.481359    1.520219   -0.398299
  H      1.872946   -1.753681   -0.487242
  H      4.234182   -0.177497   -1.301272
  H      3.988563   -1.929052   -1.398863
  H      5.684761   -1.486278    0.260238
  H      4.232818   -2.098821    1.086274
  H      3.854099    0.054521    1.739632

 Total Charge           Charge          ....    0
 Multiplicity           Mult            ....    1
 Number of Electrons    NEL             ....  140
 Basis Dimension        Dim             ....  465

ORBITAL ENERGIES
----------------

  NO   OCC          E(Eh)            E(eV)
   0   2.0000     -18.956027      -515.8197
   1   2.0000     -18.948404      -515.6123
   2   2.0000     -18.945935      -515.5451
   3   2.0000     -14.186455      -386.0331
   4   2.0000     -10.131273      -275.6860
   5   2.0000     -10.126952      -275.5684
   6   2.0000     -10.102070      -274.8913
   7   2.0000     -10.075849      -274.1778
   8   2.0000     -10.064197      -273.8607
   9   2.0000     -10.059947      -273.7451
  10   2.0000     -10.059608      -273.7359
  11   2.0000     -10.058038      -273.6931
  12   2.0000     -10.055974      -273.6370
  13   2.0000     -10.049750      -273.4676
  14   2.0000     -10.049679      -273.4657
  15   2.0000     -10.049546      -273.4620
  16   2.0000     -10.048104      -273.4228
  17   2.0000     -10.047876      -273.4166
  18   2.0000     -10.045793      -273.3599
  19   2.0000     -10.041893      -273.2538
  20   2.0000      -1.015432       -27.6313
  21   2.0000      -1.010987       -27.5104
  22   2.0000      -0.993070       -27.0228
  23   2.0000      -0.923134       -25.1197
  24   2.0000      -0.850977       -23.1563
  25   2.0000      -0.832566       -22.6553
  26   2.0000      -0.772859       -21.0306
  27   2.0000      -0.742449       -20.2031
  28   2.0000      -0.736772       -20.0486
  29   2.0000      -0.730042       -19.8654
  30   2.0000      -0.691873       -18.8268
  31   2.0000      -0.651505       -17.7284
  32   2.0000      -0.629231       -17.1222
  33   2.0000      -0.611721       -16.6458
  34   2.0000      -0.597634       -16.2624
  35   2.0000      -0.565929       -15.3997
  36   2.0000      -0.551861       -15.0169
  37   2.0000      -0.520020       -14.1505
  38   2.0000      -0.512731       -13.9521
  39   2.0000      -0.493014       -13.4156
  40   2.0000      -0.477702       -12.9989
  41   2.0000      -0.464160       -12.6304
  42   2.0000      -0.459132       -12.4936
  43   2.0000      -0.444522       -12.0961
  44   2.0000      -0.433936       -11.8080
  45   2.0000      -0.431569       -11.7436
  46   2.0000      -0.424189       -11.5428
  47   2.0000      -0.417828       -11.3697
  48   2.0000      -0.411265       -11.1911
  49   2.0000      -0.406118       -11.0510
  50   2.0000      -0.398605       -10.8466
  51   2.0000      -0.392782       -10.6881
  52   2.0000      -0.382554       -10.4098
  53   2.0000      -0.376519       -10.2456
  54   2.0000      -0.364727        -9.9247
  55   2.0000      -0.356800        -9.7090
  56   2.0000      -0.345750        -9.4083
  57   2.0000      -0.344835        -9.3834
  58   2.0000      -0.337765        -9.1910
  59   2.0000      -0.329413        -8.9638
  60   2.0000      -0.322244        -8.7687
  61   2.0000      -0.309682        -8.4269
  62   2.0000      -0.294552        -8.0152
  63   2.0000      -0.264512        -7.1977
  64   2.0000      -0.252408        -6.8684
  65   2.0000      -0.251412        -6.8413
  66   2.0000      -0.248932        -6.7738
  67   2.0000      -0.244016        -6.6400
  68   2.0000      -0.230611        -6.2752
  69   2.0000      -0.192828        -5.2471
  70   0.0000      -0.133291        -3.6270
  71   0.0000      -0.080100        -2.1796
  72   0.0000      -0.048695        -1.3251
  73   0.0000      -0.027720        -0.7543
  74   0.0000       0.024094         0.6556

MULLIKEN ATOMIC CHARGES
-----------------------
   0 C :   -0.169748
   1 C :   -0.159092
   2 C :   -0.242157
   3 C :    0.196537
   4 C :    0.138852
   5 C :   -0.228797
   6 C :    0.076446
   7 O :   -0.441752
   8 C :    0.188525
   9 C :   -0.257892
  10 C :   -0.199398
  11 C :   -0.288841
  12 C :    0.289061
  13 C :   -0.139634
  14 C :    0.029519
  15 O :   -0.501767
  16 N :   -0.033052
  17 C :   -0.338813
  18 C :   -0.140396
  19 O :   -0.490984
  20 H :    0.185199
  21 H :    0.185485
  22 H :    0.197186
  23 H :    0.195620
  24 H :    0.196905
  25 H :    0.183639
  26 H :    0.189648
  27 H :    0.334603
  28 H :    0.189049
  29 H :    0.181154
  30 H :    0.161465
  31 H :    0.151459
  32 H :    0.361969
Sum of atomic charges:   -0.0000000

LOEWDIN ATOMIC CHARGES
----------------------
   0 C :   -0.139637
   1 C :   -0.132500
   2 C :   -0.108778
   3 C :   -0.027430
   4 C :   -0.042279
   5 C :   -0.102260
   6 C :    0.276049
   7 O :   -0.550424
   8 C :   -0.032516
   9 C :   -0.126271
  10 C :   -0.126215
  11 C :   -0.124405
  12 C :    0.201404
  13 C :   -0.041296
  14 C :    0.269656
  15 O :   -0.585002
  16 N :   -0.657812
  17 C :   -0.018606
  18 C :    0.028109
  19 O :   -0.632807
  20 H :    0.184204
  21 H :    0.184443
  22 H :    0.196572
  23 H :    0.194893
  24 H :    0.195683
  25 H :    0.186054
  26 H :    0.193485
  27 H :    0.298618
  28 H :    0.194385
  29 H :    0.201438
  30 H :    0.186000
  31 H :    0.171245
  32 H :    0.285998

  Mayer bond orders larger than 0.100000
B(  0-C ,  1-C ) :   1.3094 B(  0-C ,  5-C ) :   1.3542 B(  0-C , 20-H ) :   0.9604
B(  1-C ,  2-C ) :   1.3403 B(  1-C , 21-H ) :   0.9603 B(  2-C ,  3-C ) :   1.2984
B(  2-C , 15-O ) :   0.1001 B(  2-C , 22-H ) :   0.9722 B(  3-C ,  4-C ) :   1.5077
B(  3-C , 14-C ) :   0.9145 B(  3-C , 15-O ) :  -0.2017 B(  4-C ,  5-C ) :   1.2873
B(  4-C ,  6-C ) :   0.8646 B(  4-C ,  7-O ) :  -0.2237 B(  5-C ,  7-O ) :   0.1043
B(  5-C , 23-H ) :   0.9740 B(  6-C ,  7-O ) :   2.0596 B(  6-C ,  8-C ) :   0.8742
B(  7-O ,  8-C ) :  -0.2160 B(  7-O ,  9-C ) :   0.1221 B(  8-C ,  9-C ) :   1.3348
B(  8-C , 13-C ) :   1.2659 B(  9-C , 10-C ) :   1.2237 B(  9-C , 24-H ) :   0.9809
B( 10-C , 11-C ) :   1.4018 B( 10-C , 25-H ) :   0.9774 B( 11-C , 12-C ) :   1.0907
B( 11-C , 26-H ) :   0.9538 B( 12-C , 13-C ) :   1.1911 B( 12-C , 14-C ) :  -0.1056
B( 12-C , 16-N ) :   1.3222 B( 13-C , 14-C ) :   0.9599 B( 13-C , 15-O ) :  -0.1356
B( 14-C , 15-O ) :   1.8682 B( 16-N , 17-C ) :   0.8243 B( 16-N , 27-H ) :   0.8309
B( 17-C , 18-C ) :   0.9044 B( 17-C , 28-H ) :   0.9654 B( 17-C , 29-H ) :   0.9480
B( 18-C , 19-O ) :   0.9573 B( 18-C , 30-H ) :   0.9723 B( 18-C , 31-H ) :   0.9696
B( 19-O , 32-H ) :   0.8586

Dispersion correction           -0.015814282
FINAL SINGLE POINT ENERGY      -897.805951079349

DIPOLE MOMENT
-------------

Method             : SCF
Type of density    : Electron Density
Multiplicity       :   1
Irrep              :   0
Energy             :  -897.8064724313837814 Eh
Relativity type    :
Basis              : AO
                                X                 Y                 Z
Electronic contribution:    -10.841447833       3.139143272      -0.272747057
Nuclear contribution   :     11.874701352      -4.376810843      -0.116771632
                        -----------------------------------------
Total Dipole Moment    :      1.033253519      -1.237667571      -0.389518689
                        -----------------------------------------
Magnitude (a.u.)       :      1.658661707
Magnitude (Debye)      :      4.215983010

Rotational constants in cm-1:             0.022695             0.007483             0.005856
Rotational constants in MHz :           680.377970           224.320306           175.571865

                             ****ORCA TERMINATED NORMALLY****
TOTAL RUN TIME: 0 days 0 hours 2 minutes 41 seconds 17 msec
