                         Program Version 6.0.0  -   RELEASE  -
|  1> ! r2scan-3c def2/J RI DEFGRID2 scfconv6 printgap
|  2> %output
|  3>     printlevel normal
|  4> end
|  5> * xyz 0 1
|  6> C -1.7941825447 -1.1940938675 -0.5812003391
|  7> C -2.3651301512 -0.0620474851 0.263867486
|  8> C -1.3239210624 0.6141750164 1.1554641753
|  9> C -0.2596473809 1.3852867452 0.3671704415
| 10> C 0.7800343968 0.5142486317 -0.2881288255
| 11> O 1.1765712489 0.6631681012 -1.4280377416
| 12> O 1.2521727767 -0.4094395918 0.5382537955
| 13> C 2.2714264765 -1.2987145871 0.0767567586
| 14> H -2.5866884554 -1.6839247309 -1.1418675346
| 15> H -1.0631601742 -0.8186359001 -1.2943786124
| 16> H -1.3110688455 -1.935533855 0.0514847547
| 17> H -2.8175268962 0.6847339403 -0.3920957324
| 18> H -3.1539707578 -0.4638429881 0.9030015112
| 19> H -0.8335059508 -0.1318421046 1.7816212934
| 20> H -1.8365772819 1.3218587501 1.8083845055
| 21> H 0.2837190655 2.0397089003 1.0525364482
| 22> H -0.7171326221 2.0018313075 -0.4073243017
| 23> H 3.1988550524 -1.0527617236 0.592111479
| 24> H 2.4002397493 -1.1896661365 -1.0007207958
| 25> H 1.9562155201 -2.3092850738 0.3271553867
| 26> *
| 27>
| 28>                          ****END OF INPUT****

CARTESIAN COORDINATES (ANGSTROEM)
---------------------------------
  C     -1.794183   -1.194094   -0.581200
  C     -2.365130   -0.062047    0.263867
  C     -1.323921    0.614175    1.155464
  C     -0.259647    1.385287    0.367170
  C      0.780034    0.514249   -0.288129
  O      1.176571    0.663168   -1.428038
  O      1.252173   -0.409440    0.538254
  C      2.271426   -1.298715    0.076757
  H     -2.586688   -1.683925   -1.141868
  H     -1.063160   -0.818636   -1.294379
  H     -1.311069   -1.935534    0.051485
  H     -2.817527    0.684734   -0.392096
  H     -3.153971   -0.463843    0.903002
  H     -0.833506   -0.131842    1.781621
  H     -1.836577    1.321859    1.808385
  H      0.283719    2.039709    1.052536
  H     -0.717133    2.001831   -0.407324
  H      3.198855   -1.052762    0.592111
  H      2.400240   -1.189666   -1.000721
  H      1.956216   -2.309285    0.327155

 Total Charge           Charge          ....    0
 Multiplicity           Mult            ....    1
 Number of Electrons    NEL             ....   64
 Basis Dimension        Dim             ....  222

ORBITAL ENERGIES
----------------

  NO   OCC          E(Eh)            E(eV)
   0   2.0000     -18.999683      -517.0077
   1   2.0000     -18.926729      -515.0225
   2   2.0000     -10.153677      -276.2956
   3   2.0000     -10.085756      -274.4474
   4   2.0000     -10.042871      -273.2804
   5   2.0000     -10.033061      -273.0135
   6   2.0000     -10.028029      -272.8765
   7   2.0000     -10.015420      -272.5334
   8   2.0000      -1.073362       -29.2077
   9   2.0000      -0.974817       -26.5261
  10   2.0000      -0.779940       -21.2232
  11   2.0000      -0.724631       -19.7182
  12   2.0000      -0.684739       -18.6327
  13   2.0000      -0.625476       -17.0201
  14   2.0000      -0.550053       -14.9677
  15   2.0000      -0.533590       -14.5197
  16   2.0000      -0.471879       -12.8405
  17   2.0000      -0.462468       -12.5844
  18   2.0000      -0.436939       -11.8897
  19   2.0000      -0.430250       -11.7077
  20   2.0000      -0.411186       -11.1889
  21   2.0000      -0.390750       -10.6328
  22   2.0000      -0.376783       -10.2528
  23   2.0000      -0.369792       -10.0626
  24   2.0000      -0.353743        -9.6258
  25   2.0000      -0.338092        -9.1999
  26   2.0000      -0.320285        -8.7154
  27   2.0000      -0.307815        -8.3761
  28   2.0000      -0.299197        -8.1416
  29   2.0000      -0.293035        -7.9739
  30   2.0000      -0.271436        -7.3861
  31   2.0000      -0.233519        -6.3544
  32   0.0000      -0.014218        -0.3869
  33   0.0000       0.064969         1.7679
  34   0.0000       0.089638         2.4392
  35   0.0000       0.101254         2.7553
  36   0.0000       0.121667         3.3107

MULLIKEN ATOMIC CHARGES
-----------------------
   0 C :   -0.487730
   1 C :   -0.260392
   2 C :   -0.235475
   3 C :   -0.351119
   4 C :    0.359358
   5 O :   -0.430751
   6 O :   -0.180001
   7 C :   -0.299323
   8 H :    0.148020
   9 H :    0.168435
  10 H :    0.149611
  11 H :    0.139713
  12 H :    0.144077
  13 H :    0.160263
  14 H :    0.145079
  15 H :    0.166674
  16 H :    0.176341
  17 H :    0.149005
  18 H :    0.190003
  19 H :    0.148212
Sum of atomic charges:   -0.0000000

LOEWDIN ATOMIC CHARGES
----------------------
   0 C :   -0.417927
   1 C :   -0.309383
   2 C :   -0.290362
   3 C :   -0.226411
   4 C :    0.344787
   5 O :   -0.447651
   6 O :   -0.611679
   7 C :   -0.046450
   8 H :    0.150863
   9 H :    0.165568
  10 H :    0.151763
  11 H :    0.152822
  12 H :    0.152881
  13 H :    0.170608
  14 H :    0.156246
  15 H :    0.183780
  16 H :    0.179960
  17 H :    0.173259
  18 H :    0.193746
  19 H :    0.173580

  Mayer bond orders larger than 0.100000
B(  0-C ,  1-C ) :   0.8893 B(  0-C ,  8-H ) :   0.9648 B(  0-C ,  9-H ) :   0.9621
B(  0-C , 10-H ) :   0.9817 B(  1-C ,  2-C ) :   0.9258 B(  1-C , 11-H ) :   0.9903
B(  1-C , 12-H ) :   0.9594 B(  2-C ,  3-C ) :   0.8534 B(  2-C , 13-H ) :   0.9765
B(  2-C , 14-H ) :   0.9620 B(  3-C ,  4-C ) :   0.9793 B(  3-C , 15-H ) :   0.9263
B(  3-C , 16-H ) :   1.0081 B(  4-C ,  5-O ) :   1.8599 B(  4-C ,  6-O ) :   1.0330
B(  6-O ,  7-C ) :   0.8408 B(  7-C , 17-H ) :   0.9626 B(  7-C , 18-H ) :   0.9685
B(  7-C , 19-H ) :   0.9664

Dispersion correction           -0.005564481
FINAL SINGLE POINT ENERGY      -386.227854543459

DIPOLE MOMENT
-------------

Method             : SCF
Type of density    : Electron Density
Multiplicity       :   1
Irrep              :   0
Energy             :  -386.2345544424099444 Eh
Relativity type    :
Basis              : AO
                                X                 Y                 Z
Electronic contribution:      5.924519600       2.965195960      -1.347083410
Nuclear contribution   :     -6.043870784      -3.314870664       2.125740274
                        -----------------------------------------
Total Dipole Moment    :     -0.119351184      -0.349674704       0.778656864
                        -----------------------------------------
Magnitude (a.u.)       :      0.861872158
Magnitude (Debye)      :      2.190704927

Rotational constants in cm-1:             0.098499             0.045279             0.041568
Rotational constants in MHz :          2952.926799          1357.443350          1246.168019

                             ****ORCA TERMINATED NORMALLY****
TOTAL RUN TIME: 0 days 0 hours 0 minutes 26 seconds 517 msec
