                         Program Version 6.0.0  -   RELEASE  -
|  1> ! r2scan-3c def2/J RI DEFGRID2 scfconv6 printgap
|  2> %output
|  3>     printlevel normal
|  4> end
|  5> %cpcm
|  6>     smd true
|  7>     smdsolvent "water"
|  8> end
|  9> * xyz 0 1
| 10> C -1.7941825447 -1.1940938675 -0.5812003391
| 11> C -2.3651301512 -0.0620474851 0.263867486
| 12> C -1.3239210624 0.6141750164 1.1554641753
| 13> C -0.2596473809 1.3852867452 0.3671704415
| 14> C 0.7800343968 0.5142486317 -0.2881288255
| 15> O 1.1765712489 0.6631681012 -1.4280377416
| 16> O 1.2521727767 -0.4094395918 0.5382537955
| 17> C 2.2714264765 -1.2987145871 0.0767567586
| 18> H -2.5866884554 -1.6839247309 -1.1418675346
| 19> H -1.0631601742 -0.8186359001 -1.2943786124
| 20> H -1.3110688455 -1.935533855 0.0514847547
| 21> H -2.8175268962 0.6847339403 -0.3920957324
| 22> H -3.1539707578 -0.4638429881 0.9030015112
| 23> H -0.8335059508 -0.1318421046 1.7816212934
| 24> H -1.8365772819 1.3218587501 1.8083845055
| 25> H 0.2837190655 2.0397089003 1.0525364482
| 26> H -0.7171326221 2.0018313075 -0.4073243017
| 27> H 3.1988550524 -1.0527617236 0.592111479
| 28> H 2.4002397493 -1.1896661365 -1.0007207958
| 29> H 1.9562155201 -2.3092850738 0.3271553867
| 30> *
| 31>
| 32>                          ****END OF INPUT****

CARTESIAN COORDINATES (ANGSTROEM)
---------------------------------
  C     -1.794183   -1.194094   -0.581200
  C     -2.365130   -0.062047    0.263867
  C     -1.323921    0.614175    1.155464
  C     -0.259647    1.385287    0.367170
  C      0.780034    0.514249   -0.288129
  O      1.176571    0.663168   -1.428038
  O      1.252173   -0.409440    0.538254
  C      2.271426   -1.298715    0.076757
  H     -2.586688   -1.683925   -1.141868
  H     -1.063160   -0.818636   -1.294379
  H     -1.311069   -1.935534    0.051485
  H     -2.817527    0.684734   -0.392096
  H     -3.153971   -0.463843    0.903002
  H     -0.833506   -0.131842    1.781621
  H     -1.836577    1.321859    1.808385
  H      0.283719    2.039709    1.052536
  H     -0.717133    2.001831   -0.407324
  H      3.198855   -1.052762    0.592111
  H      2.400240   -1.189666   -1.000721
  H      1.956216   -2.309285    0.327155

 Total Charge           Charge          ....    0
 Multiplicity           Mult            ....    1
 Number of Electrons    NEL             ....   64
 Basis Dimension        Dim             ....  222

ORBITAL ENERGIES
----------------

  NO   OCC          E(Eh)            E(eV)
   0   2.0000     -19.003778      -517.1191
   1   2.0000     -18.941221      -515.4168
   2   2.0000     -10.162935      -276.5475
   3   2.0000     -10.075157      -274.1590
   4   2.0000     -10.036229      -273.0997
   5   2.0000     -10.024328      -272.7758
   6   2.0000     -10.018632      -272.6208
   7   2.0000     -10.009116      -272.3619
   8   2.0000      -1.078919       -29.3589
   9   2.0000      -0.987406       -26.8687
  10   2.0000      -0.773285       -21.0422
  11   2.0000      -0.719315       -19.5736
  12   2.0000      -0.677865       -18.4456
  13   2.0000      -0.619047       -16.8451
  14   2.0000      -0.543830       -14.7984
  15   2.0000      -0.529747       -14.4152
  16   2.0000      -0.469761       -12.7829
  17   2.0000      -0.461048       -12.5457
  18   2.0000      -0.449866       -12.2415
  19   2.0000      -0.422332       -11.4922
  20   2.0000      -0.405122       -11.0239
  21   2.0000      -0.383794       -10.4436
  22   2.0000      -0.372998       -10.1498
  23   2.0000      -0.367923       -10.0117
  24   2.0000      -0.350688        -9.5427
  25   2.0000      -0.330978        -9.0064
  26   2.0000      -0.320570        -8.7232
  27   2.0000      -0.301608        -8.2072
  28   2.0000      -0.292509        -7.9596
  29   2.0000      -0.285877        -7.7791
  30   2.0000      -0.277093        -7.5401
  31   2.0000      -0.247605        -6.7377
  32   0.0000      -0.021167        -0.5760
  33   0.0000       0.071025         1.9327
  34   0.0000       0.096921         2.6373
  35   0.0000       0.111058         3.0221
  36   0.0000       0.129460         3.5228

MULLIKEN ATOMIC CHARGES
-----------------------
   0 C :   -0.520218
   1 C :   -0.270586
   2 C :   -0.243326
   3 C :   -0.368968
   4 C :    0.392854
   5 O :   -0.515564
   6 O :   -0.195599
   7 C :   -0.315257
   8 H :    0.160146
   9 H :    0.161216
  10 H :    0.163864
  11 H :    0.151393
  12 H :    0.155247
  13 H :    0.161810
  14 H :    0.161855
  15 H :    0.199086
  16 H :    0.185074
  17 H :    0.176607
  18 H :    0.184677
  19 H :    0.175690
Sum of atomic charges:   -0.0000000

LOEWDIN ATOMIC CHARGES
----------------------
   0 C :   -0.424407
   1 C :   -0.310690
   2 C :   -0.287893
   3 C :   -0.224895
   4 C :    0.352857
   5 O :   -0.509717
   6 O :   -0.612492
   7 C :   -0.041482
   8 H :    0.153947
   9 H :    0.161783
  10 H :    0.155513
  11 H :    0.156189
  12 H :    0.156404
  13 H :    0.170533
  14 H :    0.162725
  15 H :    0.196207
  16 H :    0.183803
  17 H :    0.184207
  18 H :    0.192131
  19 H :    0.185277

  Mayer bond orders larger than 0.100000
B(  0-C ,  1-C ) :   0.8775 B(  0-C ,  8-H ) :   0.9627 B(  0-C ,  9-H ) :   0.9636
B(  0-C , 10-H ) :   0.9781 B(  1-C ,  2-C ) :   0.9207 B(  1-C , 11-H ) :   0.9903
B(  1-C , 12-H ) :   0.9587 B(  2-C ,  3-C ) :   0.8402 B(  2-C , 13-H ) :   0.9768
B(  2-C , 14-H ) :   0.9593 B(  3-C ,  4-C ) :   0.9815 B(  3-C , 15-H ) :   0.9167
B(  3-C , 16-H ) :   1.0029 B(  4-C ,  5-O ) :   1.7880 B(  4-C ,  6-O ) :   1.0608
B(  6-O ,  7-C ) :   0.8274 B(  7-C , 17-H ) :   0.9539 B(  7-C , 18-H ) :   0.9651
B(  7-C , 19-H ) :   0.9568

Dispersion correction           -0.005564481
FINAL SINGLE POINT ENERGY      -386.232397791736

DIPOLE MOMENT
-------------

Method             : SCF
Type of density    : Electron Density
Multiplicity       :   1
Irrep              :   0
Energy             :  -386.2390976906869469 Eh
Relativity type    :
Basis              : AO
                                X                 Y                 Z
Electronic contribution:      5.848071542       2.871800499      -0.986687297
Nuclear contribution   :     -6.043870784      -3.314870664       2.125740274
                        -----------------------------------------
Total Dipole Moment    :     -0.195799242      -0.443070165       1.139052977
                        -----------------------------------------
Magnitude (a.u.)       :      1.237776312
Magnitude (Debye)      :      3.146177355

Rotational constants in cm-1:             0.098499             0.045279             0.041568
Rotational constants in MHz :          2952.926799          1357.443350          1246.168019

                             ****ORCA TERMINATED NORMALLY****
TOTAL RUN TIME: 0 days 0 hours 0 minutes 34 seconds 234 msec
