                         Program Version 6.0.0  -   RELEASE  -
|  1> ! r2scan-3c def2/J RI DEFGRID2 scfconv6 printgap
|  2> %output
|  3>     printlevel normal
|  4> end
|  5> * xyz 0 1
|  6> C 3.1229033678 -0.8714777555 0.35514709
|  7> C 2.6709940053 0.4032040799 -0.3487972199
|  8> C 1.3324710609 0.9346598828 0.1660166381
|  9> C 0.1586430414 0.0139517102 -0.1734523137
| 10> C -1.1518343138 0.6422636158 0.264578023
| 11> Cl -2.5376173808 -0.4391738199 -0.1206677024
| 12> H 2.4474076721 -1.6960509068 0.1445782592
| 13> H 3.1581515547 -0.7189994769 1.4313943969
| 14> H 4.1165301596 -1.1548922314 0.0166764747
| 15> H 3.4282692518 1.1752543764 -0.1977104674
| 16> H 2.5970459525 0.2181752112 -1.4222553102
| 17> H 1.1500356427 1.9149484425 -0.2788297098
| 18> H 1.3889456482 1.0651123531 1.248227365
| 19> H 0.2785066374 -0.946719341 0.3276221695
| 20> H 0.1337312893 -0.1657375438 -1.2497465543
| 21> H -1.1812492378 0.800623456 1.3412304747
| 22> H -1.3445815209 1.5783942252 -0.2566856334
| 23> *
| 24>
| 25>                          ****END OF INPUT****

CARTESIAN COORDINATES (ANGSTROEM)
---------------------------------
  C      3.122903   -0.871478    0.355147
  C      2.670994    0.403204   -0.348797
  C      1.332471    0.934660    0.166017
  C      0.158643    0.013952   -0.173452
  C     -1.151834    0.642264    0.264578
  Cl    -2.537617   -0.439174   -0.120668
  H      2.447408   -1.696051    0.144578
  H      3.158152   -0.718999    1.431394
  H      4.116530   -1.154892    0.016676
  H      3.428269    1.175254   -0.197710
  H      2.597046    0.218175   -1.422255
  H      1.150036    1.914948   -0.278830
  H      1.388946    1.065112    1.248227
  H      0.278507   -0.946719    0.327622
  H      0.133731   -0.165738   -1.249747
  H     -1.181249    0.800623    1.341230
  H     -1.344582    1.578394   -0.256686

 Total Charge           Charge          ....    0
 Multiplicity           Mult            ....    1
 Number of Electrons    NEL             ....   58
 Basis Dimension        Dim             ....  177

ORBITAL ENERGIES
----------------

  NO   OCC          E(Eh)            E(eV)
   0   2.0000    -101.195944     -2753.6816
   1   2.0000     -10.090885      -274.5869
   2   2.0000     -10.039739      -273.1952
   3   2.0000     -10.036543      -273.1082
   4   2.0000     -10.033185      -273.0168
   5   2.0000     -10.021754      -272.7058
   6   2.0000      -9.351976      -254.4802
   7   2.0000      -7.098167      -193.1509
   8   2.0000      -7.088041      -192.8754
   9   2.0000      -7.088022      -192.8749
  10   2.0000      -0.820614       -22.3300
  11   2.0000      -0.772124       -21.0106
  12   2.0000      -0.711297       -19.3554
  13   2.0000      -0.640078       -17.4174
  14   2.0000      -0.582308       -15.8454
  15   2.0000      -0.545945       -14.8559
  16   2.0000      -0.461905       -12.5691
  17   2.0000      -0.432426       -11.7669
  18   2.0000      -0.420085       -11.4311
  19   2.0000      -0.399674       -10.8757
  20   2.0000      -0.380537       -10.3549
  21   2.0000      -0.365458        -9.9446
  22   2.0000      -0.349816        -9.5190
  23   2.0000      -0.331398        -9.0178
  24   2.0000      -0.308295        -8.3891
  25   2.0000      -0.306278        -8.3342
  26   2.0000      -0.299877        -8.1601
  27   2.0000      -0.262272        -7.1368
  28   2.0000      -0.260302        -7.0832
  29   0.0000       0.009752         0.2654
  30   0.0000       0.083130         2.2621
  31   0.0000       0.095183         2.5901
  32   0.0000       0.115496         3.1428
  33   0.0000       0.127828         3.4784

MULLIKEN ATOMIC CHARGES
-----------------------
   0 C :   -0.486909
   1 C :   -0.215549
   2 C :   -0.263733
   3 C :   -0.303381
   4 C :   -0.155050
   5 Cl:   -0.203549
   6 H :    0.150242
   7 H :    0.143972
   8 H :    0.148455
   9 H :    0.144618
  10 H :    0.134296
  11 H :    0.140007
  12 H :    0.139416
  13 H :    0.157940
  14 H :    0.155092
  15 H :    0.156502
  16 H :    0.157631
Sum of atomic charges:    0.0000000

LOEWDIN ATOMIC CHARGES
----------------------
   0 C :   -0.425733
   1 C :   -0.314111
   2 C :   -0.311113
   3 C :   -0.329306
   4 C :   -0.320434
   5 Cl:   -0.006457
   6 H :    0.149825
   7 H :    0.150540
   8 H :    0.152417
   9 H :    0.153179
  10 H :    0.152878
  11 H :    0.155899
  12 H :    0.155109
  13 H :    0.161405
  14 H :    0.161369
  15 H :    0.157392
  16 H :    0.157140

  Mayer bond orders larger than 0.100000
B(  0-C ,  1-C ) :   0.8955 B(  0-C ,  6-H ) :   0.9824 B(  0-C ,  7-H ) :   0.9813
B(  0-C ,  8-H ) :   0.9687 B(  1-C ,  2-C ) :   0.8993 B(  1-C ,  9-H ) :   0.9710
B(  1-C , 10-H ) :   0.9808 B(  2-C ,  3-C ) :   0.8951 B(  2-C , 11-H ) :   0.9691
B(  2-C , 12-H ) :   0.9768 B(  3-C ,  4-C ) :   0.9497 B(  3-C , 13-H ) :   0.9655
B(  3-C , 14-H ) :   0.9696 B(  4-C ,  5-Cl) :   0.9815 B(  4-C , 15-H ) :   0.9613
B(  4-C , 16-H ) :   0.9650

Dispersion correction           -0.004244962
FINAL SINGLE POINT ENERGY      -657.267896277458

DIPOLE MOMENT
-------------

Method             : SCF
Type of density    : Electron Density
Multiplicity       :   1
Irrep              :   0
Energy             :  -657.2738162275893501 Eh
Relativity type    :
Basis              : AO
                                X                 Y                 Z
Electronic contribution:    -17.740030854      -2.070938055      -1.068011350
Nuclear contribution   :     18.578805761       2.531571971       1.198169013
                        -----------------------------------------
Total Dipole Moment    :      0.838774907       0.460633917       0.130157663
                        -----------------------------------------
Magnitude (a.u.)       :      0.965747362
Magnitude (Debye)      :      2.454734714

Rotational constants in cm-1:             0.272755             0.031086             0.029271
Rotational constants in MHz :          8176.980429           931.922251           877.526771

                             ****ORCA TERMINATED NORMALLY****
TOTAL RUN TIME: 0 days 0 hours 0 minutes 19 seconds 106 msec
