                         Program Version 6.0.0  -   RELEASE  -
|  1> ! r2scan-3c def2/J RI DEFGRID2 scfconv6 printgap
|  2> %output
|  3>     printlevel normal
|  4> end
|  5> %cpcm
|  6>     smd true
|  7>     smdsolvent "water"
|  8> end
|  9> * xyz 0 1
| 10> C 3.1229033678 -0.8714777555 0.35514709
| 11> C 2.6709940053 0.4032040799 -0.3487972199
| 12> C 1.3324710609 0.9346598828 0.1660166381
| 13> C 0.1586430414 0.0139517102 -0.1734523137
| 14> C -1.1518343138 0.6422636158 0.264578023
| 15> Cl -2.5376173808 -0.4391738199 -0.1206677024
| 16> H 2.4474076721 -1.6960509068 0.1445782592
| 17> H 3.1581515547 -0.7189994769 1.4313943969
| 18> H 4.1165301596 -1.1548922314 0.0166764747
| 19> H 3.4282692518 1.1752543764 -0.1977104674
| 20> H 2.5970459525 0.2181752112 -1.4222553102
| 21> H 1.1500356427 1.9149484425 -0.2788297098
| 22> H 1.3889456482 1.0651123531 1.248227365
| 23> H 0.2785066374 -0.946719341 0.3276221695
| 24> H 0.1337312893 -0.1657375438 -1.2497465543
| 25> H -1.1812492378 0.800623456 1.3412304747
| 26> H -1.3445815209 1.5783942252 -0.2566856334
| 27> *
| 28>
| 29>                          ****END OF INPUT****

CARTESIAN COORDINATES (ANGSTROEM)
---------------------------------
  C      3.122903   -0.871478    0.355147
  C      2.670994    0.403204   -0.348797
  C      1.332471    0.934660    0.166017
  C      0.158643    0.013952   -0.173452
  C     -1.151834    0.642264    0.264578
  Cl    -2.537617   -0.439174   -0.120668
  H      2.447408   -1.696051    0.144578
  H      3.158152   -0.718999    1.431394
  H      4.116530   -1.154892    0.016676
  H      3.428269    1.175254   -0.197710
  H      2.597046    0.218175   -1.422255
  H      1.150036    1.914948   -0.278830
  H      1.388946    1.065112    1.248227
  H      0.278507   -0.946719    0.327622
  H      0.133731   -0.165738   -1.249747
  H     -1.181249    0.800623    1.341230
  H     -1.344582    1.578394   -0.256686

 Total Charge           Charge          ....    0
 Multiplicity           Mult            ....    1
 Number of Electrons    NEL             ....   58
 Basis Dimension        Dim             ....  177

ORBITAL ENERGIES
----------------

  NO   OCC          E(Eh)            E(eV)
   0   2.0000    -101.197763     -2753.7311
   1   2.0000     -10.080120      -274.2940
   2   2.0000     -10.026023      -272.8219
   3   2.0000     -10.020041      -272.6592
   4   2.0000     -10.017872      -272.6001
   5   2.0000     -10.007055      -272.3058
   6   2.0000      -9.354186      -254.5403
   7   2.0000      -7.099951      -193.1995
   8   2.0000      -7.090428      -192.9404
   9   2.0000      -7.090411      -192.9399
  10   2.0000      -0.816560       -22.2197
  11   2.0000      -0.759169       -20.6580
  12   2.0000      -0.699800       -19.0425
  13   2.0000      -0.627679       -17.0800
  14   2.0000      -0.569943       -15.5090
  15   2.0000      -0.530738       -14.4421
  16   2.0000      -0.447424       -12.1750
  17   2.0000      -0.418235       -11.3807
  18   2.0000      -0.408033       -11.1031
  19   2.0000      -0.390524       -10.6267
  20   2.0000      -0.367516       -10.0006
  21   2.0000      -0.353955        -9.6316
  22   2.0000      -0.336973        -9.1695
  23   2.0000      -0.317719        -8.6456
  24   2.0000      -0.295794        -8.0490
  25   2.0000      -0.290038        -7.8923
  26   2.0000      -0.285496        -7.7688
  27   2.0000      -0.263882        -7.1806
  28   2.0000      -0.260329        -7.0839
  29   0.0000       0.013821         0.3761
  30   0.0000       0.098583         2.6826
  31   0.0000       0.107695         2.9305
  32   0.0000       0.127956         3.4819
  33   0.0000       0.143542         3.9060

MULLIKEN ATOMIC CHARGES
-----------------------
   0 C :   -0.524477
   1 C :   -0.231831
   2 C :   -0.277009
   3 C :   -0.313775
   4 C :   -0.165627
   5 Cl:   -0.253109
   6 H :    0.159711
   7 H :    0.154693
   8 H :    0.156071
   9 H :    0.152558
  10 H :    0.143033
  11 H :    0.153326
  12 H :    0.153018
  13 H :    0.166085
  14 H :    0.163154
  15 H :    0.181666
  16 H :    0.182514
Sum of atomic charges:    0.0000000

LOEWDIN ATOMIC CHARGES
----------------------
   0 C :   -0.434577
   1 C :   -0.316337
   2 C :   -0.309463
   3 C :   -0.329872
   4 C :   -0.315326
   5 Cl:   -0.040004
   6 H :    0.151880
   7 H :    0.153018
   8 H :    0.153118
   9 H :    0.154941
  10 H :    0.154634
  11 H :    0.160065
  12 H :    0.159334
  13 H :    0.162817
  14 H :    0.162823
  15 H :    0.166557
  16 H :    0.166391

  Mayer bond orders larger than 0.100000
B(  0-C ,  1-C ) :   0.8886 B(  0-C ,  6-H ) :   0.9797 B(  0-C ,  7-H ) :   0.9787
B(  0-C ,  8-H ) :   0.9675 B(  1-C ,  2-C ) :   0.8904 B(  1-C ,  9-H ) :   0.9720
B(  1-C , 10-H ) :   0.9823 B(  2-C ,  3-C ) :   0.9002 B(  2-C , 11-H ) :   0.9692
B(  2-C , 12-H ) :   0.9766 B(  3-C ,  4-C ) :   0.9419 B(  3-C , 13-H ) :   0.9647
B(  3-C , 14-H ) :   0.9688 B(  4-C ,  5-Cl) :   0.9377 B(  4-C , 15-H ) :   0.9552
B(  4-C , 16-H ) :   0.9578

Dispersion correction           -0.004244962
FINAL SINGLE POINT ENERGY      -657.269504244989

DIPOLE MOMENT
-------------

Method             : SCF
Type of density    : Electron Density
Multiplicity       :   1
Irrep              :   0
Energy             :  -657.2754241951207632 Eh
Relativity type    :
Basis              : AO
                                X                 Y                 Z
Electronic contribution:    -17.569502878      -1.880556445      -1.003661646
Nuclear contribution   :     18.578805761       2.531571971       1.198169013
                        -----------------------------------------
Total Dipole Moment    :      1.009302884       0.651015526       0.194507366
                        -----------------------------------------
Magnitude (a.u.)       :      1.216694967
Magnitude (Debye)      :      3.092592833

Rotational constants in cm-1:             0.272755             0.031086             0.029271
Rotational constants in MHz :          8176.980429           931.922251           877.526771

                             ****ORCA TERMINATED NORMALLY****
TOTAL RUN TIME: 0 days 0 hours 0 minutes 24 seconds 828 msec
