                         Program Version 6.0.0  -   RELEASE  -
|  1> ! r2scan-3c def2/J RI DEFGRID2 scfconv6 printgap
|  2> %output
|  3>     printlevel normal
|  4> end
|  5> * xyz 0 1
|  6> C -4.3245657598 -0.9377594019 -0.0610689945
|  7> C -3.2693835252 0.03339364 0.454897087
|  8> C -1.8680846653 -0.3728271902 -0.0053719414
|  9> C -0.8383111293 0.6052341912 0.517625128
| 10> I 1.1802774932 0.0793747468 -0.1022250871
| 11> H -4.1288836954 -1.9430928916 0.3042048206
| 12> H -5.3128872749 -0.635540704 0.2747259164
| 13> H -4.3221427932 -0.9613291903 -1.1481905744
| 14> H -3.2989454015 0.057512538 1.546286304
| 15> H -3.4918550161 1.0394517949 0.0930537183
| 16> H -1.6451350656 -1.3785537303 0.3575922053
| 17> H -1.8384130391 -0.3972353868 -1.0968991831
| 18> H -0.8157223693 0.622674737 1.6040474989
| 19> H -1.0084160279 1.6095961575 0.1388306879
| 20> *
| 21>
| 22>                          ****END OF INPUT****

CARTESIAN COORDINATES (ANGSTROEM)
---------------------------------
  C     -4.324566   -0.937759   -0.061069
  C     -3.269384    0.033394    0.454897
  C     -1.868085   -0.372827   -0.005372
  C     -0.838311    0.605234    0.517625
  I      1.180277    0.079375   -0.102225
  H     -4.128884   -1.943093    0.304205
  H     -5.312887   -0.635541    0.274726
  H     -4.322143   -0.961329   -1.148191
  H     -3.298945    0.057513    1.546286
  H     -3.491855    1.039452    0.093054
  H     -1.645135   -1.378554    0.357592
  H     -1.838413   -0.397235   -1.096899
  H     -0.815722    0.622675    1.604047
  H     -1.008416    1.609596    0.138831

 Total Charge           Charge          ....    0
 Multiplicity           Mult            ....    1
 Number of Electrons    NEL             ....   58
 Basis Dimension        Dim             ....  157

ORBITAL ENERGIES
----------------

  NO   OCC          E(Eh)            E(eV)
   0   2.0000     -10.084376      -274.4098
   1   2.0000     -10.043810      -273.3060
   2   2.0000     -10.040525      -273.2166
   3   2.0000     -10.026968      -272.8477
   4   2.0000      -6.802575      -185.1075
   5   2.0000      -4.820940      -131.1844
   6   2.0000      -4.805078      -130.7528
   7   2.0000      -4.804865      -130.7470
   8   2.0000      -1.856355       -50.5140
   9   2.0000      -1.852227       -50.4016
  10   2.0000      -1.852029       -50.3963
  11   2.0000      -1.839170       -50.0464
  12   2.0000      -1.839158       -50.0460
  13   2.0000      -0.786488       -21.4014
  14   2.0000      -0.721146       -19.6234
  15   2.0000      -0.648968       -17.6593
  16   2.0000      -0.587205       -15.9787
  17   2.0000      -0.561128       -15.2691
  18   2.0000      -0.462857       -12.5950
  19   2.0000      -0.414402       -11.2765
  20   2.0000      -0.408194       -11.1075
  21   2.0000      -0.388016       -10.5584
  22   2.0000      -0.348187        -9.4747
  23   2.0000      -0.343212        -9.3393
  24   2.0000      -0.324936        -8.8420
  25   2.0000      -0.310702        -8.4546
  26   2.0000      -0.297741        -8.1019
  27   2.0000      -0.230501        -6.2723
  28   2.0000      -0.230274        -6.2661
  29   0.0000      -0.054579        -1.4852
  30   0.0000       0.090009         2.4493
  31   0.0000       0.099709         2.7132
  32   0.0000       0.124859         3.3976
  33   0.0000       0.127549         3.4708

MULLIKEN ATOMIC CHARGES
-----------------------
   0 C :   -0.458965
   1 C :   -0.227345
   2 C :   -0.257528
   3 C :   -0.272192
   4 I :   -0.144058
   5 H :    0.144183
   6 H :    0.149871
   7 H :    0.144239
   8 H :    0.136471
   9 H :    0.136404
  10 H :    0.152571
  11 H :    0.152574
  12 H :    0.171862
  13 H :    0.171913
Sum of atomic charges:    0.0000000

LOEWDIN ATOMIC CHARGES
----------------------
   0 C :   -0.419319
   1 C :   -0.314380
   2 C :   -0.328454
   3 C :   -0.412403
   4 I :    0.060874
   5 H :    0.151725
   6 H :    0.152562
   7 H :    0.151720
   8 H :    0.152756
   9 H :    0.152761
  10 H :    0.161377
  11 H :    0.161360
  12 H :    0.164706
  13 H :    0.164715

  Mayer bond orders larger than 0.100000
B(  0-C ,  1-C ) :   0.9034 B(  0-C ,  5-H ) :   0.9815 B(  0-C ,  6-H ) :   0.9735
B(  0-C ,  7-H ) :   0.9816 B(  1-C ,  2-C ) :   0.9048 B(  1-C ,  8-H ) :   0.9666
B(  1-C ,  9-H ) :   0.9666 B(  2-C ,  3-C ) :   0.9283 B(  2-C , 10-H ) :   0.9682
B(  2-C , 11-H ) :   0.9683 B(  3-C ,  4-I ) :   0.9716 B(  3-C , 12-H ) :   0.9553
B(  3-C , 13-H ) :   0.9553

Dispersion correction           -0.003391361
FINAL SINGLE POINT ENERGY      -455.529556990363

DIPOLE MOMENT
-------------

Method             : SCF
Type of density    : Electron Density
Multiplicity       :   1
Irrep              :   0
Energy             :  -455.5323805778518818 Eh
Relativity type    :
Basis              : AO
                                X                 Y                 Z
Electronic contribution:    108.964416775       7.726584797      -9.169321234
Nuclear contribution   :   -109.896134831      -7.622580106       9.362182610
                        -----------------------------------------
Total Dipole Moment    :     -0.931718056       0.104004691       0.192861377
                        -----------------------------------------
Magnitude (a.u.)       :      0.957136888
Magnitude (Debye)      :      2.432848628

Rotational constants in cm-1:             0.507791             0.024343             0.023640
Rotational constants in MHz :         15223.203800           729.777672           708.696141

                             ****ORCA TERMINATED NORMALLY****
TOTAL RUN TIME: 0 days 0 hours 0 minutes 15 seconds 441 msec
