                         Program Version 6.0.0  -   RELEASE  -
|  1> ! r2scan-3c def2/J RI DEFGRID2 scfconv6 printgap
|  2> %output
|  3>     printlevel normal
|  4> end
|  5> %cpcm
|  6>     smd true
|  7>     smdsolvent "water"
|  8> end
|  9> * xyz 0 1
| 10> C -4.3245657598 -0.9377594019 -0.0610689945
| 11> C -3.2693835252 0.03339364 0.454897087
| 12> C -1.8680846653 -0.3728271902 -0.0053719414
| 13> C -0.8383111293 0.6052341912 0.517625128
| 14> I 1.1802774932 0.0793747468 -0.1022250871
| 15> H -4.1288836954 -1.9430928916 0.3042048206
| 16> H -5.3128872749 -0.635540704 0.2747259164
| 17> H -4.3221427932 -0.9613291903 -1.1481905744
| 18> H -3.2989454015 0.057512538 1.546286304
| 19> H -3.4918550161 1.0394517949 0.0930537183
| 20> H -1.6451350656 -1.3785537303 0.3575922053
| 21> H -1.8384130391 -0.3972353868 -1.0968991831
| 22> H -0.8157223693 0.622674737 1.6040474989
| 23> H -1.0084160279 1.6095961575 0.1388306879
| 24> *
| 25>
| 26>                          ****END OF INPUT****

CARTESIAN COORDINATES (ANGSTROEM)
---------------------------------
  C     -4.324566   -0.937759   -0.061069
  C     -3.269384    0.033394    0.454897
  C     -1.868085   -0.372827   -0.005372
  C     -0.838311    0.605234    0.517625
  I      1.180277    0.079375   -0.102225
  H     -4.128884   -1.943093    0.304205
  H     -5.312887   -0.635541    0.274726
  H     -4.322143   -0.961329   -1.148191
  H     -3.298945    0.057513    1.546286
  H     -3.491855    1.039452    0.093054
  H     -1.645135   -1.378554    0.357592
  H     -1.838413   -0.397235   -1.096899
  H     -0.815722    0.622675    1.604047
  H     -1.008416    1.609596    0.138831

 Total Charge           Charge          ....    0
 Multiplicity           Mult            ....    1
 Number of Electrons    NEL             ....   58
 Basis Dimension        Dim             ....  157

ORBITAL ENERGIES
----------------

  NO   OCC          E(Eh)            E(eV)
   0   2.0000     -10.071065      -274.0476
   1   2.0000     -10.027882      -272.8726
   2   2.0000     -10.022582      -272.7283
   3   2.0000     -10.010165      -272.3904
   4   2.0000      -6.801119      -185.0679
   5   2.0000      -4.818499      -131.1180
   6   2.0000      -4.804147      -130.7275
   7   2.0000      -4.803904      -130.7209
   8   2.0000      -1.854118       -50.4531
   9   2.0000      -1.850393       -50.3517
  10   2.0000      -1.850168       -50.3456
  11   2.0000      -1.838600       -50.0308
  12   2.0000      -1.838594       -50.0307
  13   2.0000      -0.770334       -20.9618
  14   2.0000      -0.707455       -19.2508
  15   2.0000      -0.640692       -17.4341
  16   2.0000      -0.574887       -15.6435
  17   2.0000      -0.544183       -14.8080
  18   2.0000      -0.445103       -12.1119
  19   2.0000      -0.398261       -10.8372
  20   2.0000      -0.391036       -10.6406
  21   2.0000      -0.373740       -10.1700
  22   2.0000      -0.334174        -9.0933
  23   2.0000      -0.326323        -8.8797
  24   2.0000      -0.308362        -8.3910
  25   2.0000      -0.292198        -7.9511
  26   2.0000      -0.285538        -7.7699
  27   2.0000      -0.231932        -6.3112
  28   2.0000      -0.231737        -6.3059
  29   0.0000      -0.045428        -1.2362
  30   0.0000       0.106804         2.9063
  31   0.0000       0.115451         3.1416
  32   0.0000       0.139124         3.7858
  33   0.0000       0.144357         3.9282

MULLIKEN ATOMIC CHARGES
-----------------------
   0 C :   -0.503149
   1 C :   -0.236832
   2 C :   -0.270184
   3 C :   -0.251818
   4 I :   -0.213445
   5 H :    0.154654
   6 H :    0.158826
   7 H :    0.154659
   8 H :    0.149302
   9 H :    0.149286
  10 H :    0.160200
  11 H :    0.160091
  12 H :    0.194194
  13 H :    0.194216
Sum of atomic charges:    0.0000000

LOEWDIN ATOMIC CHARGES
----------------------
   0 C :   -0.428169
   1 C :   -0.312651
   2 C :   -0.328273
   3 C :   -0.398994
   4 I :    0.021400
   5 H :    0.153579
   6 H :    0.154361
   7 H :    0.153552
   8 H :    0.156613
   9 H :    0.156631
  10 H :    0.162624
  11 H :    0.162570
  12 H :    0.173399
  13 H :    0.173356

  Mayer bond orders larger than 0.100000
B(  0-C ,  1-C ) :   0.8892 B(  0-C ,  5-H ) :   0.9800 B(  0-C ,  6-H ) :   0.9713
B(  0-C ,  7-H ) :   0.9801 B(  1-C ,  2-C ) :   0.9051 B(  1-C ,  8-H ) :   0.9670
B(  1-C ,  9-H ) :   0.9670 B(  2-C ,  3-C ) :   0.9260 B(  2-C , 10-H ) :   0.9681
B(  2-C , 11-H ) :   0.9682 B(  3-C ,  4-I ) :   0.9103 B(  3-C , 12-H ) :   0.9489
B(  3-C , 13-H ) :   0.9489

Dispersion correction           -0.003391361
FINAL SINGLE POINT ENERGY      -455.531755343235

DIPOLE MOMENT
-------------

Method             : SCF
Type of density    : Electron Density
Multiplicity       :   1
Irrep              :   0
Energy             :  -455.5345789307239670 Eh
Relativity type    :
Basis              : AO
                                X                 Y                 Z
Electronic contribution:    108.735562787       7.820716487      -9.073923173
Nuclear contribution   :   -109.896134831      -7.622580106       9.362182610
                        -----------------------------------------
Total Dipole Moment    :     -1.160572044       0.198136381       0.288259437
                        -----------------------------------------
Magnitude (a.u.)       :      1.212138192
Magnitude (Debye)      :      3.081010433

Rotational constants in cm-1:             0.507791             0.024343             0.023640
Rotational constants in MHz :         15223.203800           729.777672           708.696141

                             ****ORCA TERMINATED NORMALLY****
TOTAL RUN TIME: 0 days 0 hours 0 minutes 16 seconds 738 msec
