                         Program Version 6.0.0  -   RELEASE  -
|  1> ! r2scan-3c def2/J RI DEFGRID2 scfconv6 printgap
|  2> %output
|  3>     printlevel normal
|  4> end
|  5> * xyz 0 1
|  6> C -1.9757638942 0.8048538496 0.4390015034
|  7> C -1.4920851305 -0.533247481 -0.1037677452
|  8> C -0.216523891 -0.3877771712 -0.9498249628
|  9> N 0.8909634828 -0.0642681718 -0.0633109144
| 10> O 1.1906788696 1.1032453455 0.0833564737
| 11> O 1.4359983147 -0.9796056335 0.5216614357
| 12> H -1.2084737293 1.2893081373 1.040068737
| 13> H -2.24098825 1.4742763499 -0.3752491464
| 14> H -2.8522345006 0.6585153703 1.063653014
| 15> H -2.261758852 -0.9698970652 -0.7392399342
| 16> H -1.2941470133 -1.2264976203 0.7161386461
| 17> H 0.0131340331 -1.3352788622 -1.4373967768
| 18> H -0.3274618267 0.4243940025 -1.668311496
| 19> *
| 20>
| 21>                          ****END OF INPUT****

CARTESIAN COORDINATES (ANGSTROEM)
---------------------------------
  C     -1.975764    0.804854    0.439002
  C     -1.492085   -0.533247   -0.103768
  C     -0.216524   -0.387777   -0.949825
  N      0.890963   -0.064268   -0.063311
  O      1.190679    1.103245    0.083356
  O      1.435998   -0.979606    0.521661
  H     -1.208474    1.289308    1.040069
  H     -2.240988    1.474276   -0.375249
  H     -2.852235    0.658515    1.063653
  H     -2.261759   -0.969897   -0.739240
  H     -1.294147   -1.226498    0.716139
  H      0.013134   -1.335279   -1.437397
  H     -0.327462    0.424394   -1.668311

 Total Charge           Charge          ....    0
 Multiplicity           Mult            ....    1
 Number of Electrons    NEL             ....   48
 Basis Dimension        Dim             ....  164

ORBITAL ENERGIES
----------------

  NO   OCC          E(Eh)            E(eV)
   0   2.0000     -18.983781      -516.5749
   1   2.0000     -18.982417      -516.5378
   2   2.0000     -14.390069      -391.5737
   3   2.0000     -10.097503      -274.7670
   4   2.0000     -10.062522      -273.8151
   5   2.0000     -10.034442      -273.0510
   6   2.0000      -1.205588       -32.8057
   7   2.0000      -1.026254       -27.9258
   8   2.0000      -0.818673       -22.2772
   9   2.0000      -0.727260       -19.7897
  10   2.0000      -0.621254       -16.9052
  11   2.0000      -0.565451       -15.3867
  12   2.0000      -0.524006       -14.2589
  13   2.0000      -0.500882       -13.6297
  14   2.0000      -0.488586       -13.2951
  15   2.0000      -0.440403       -11.9840
  16   2.0000      -0.421624       -11.4730
  17   2.0000      -0.398348       -10.8396
  18   2.0000      -0.346744        -9.4354
  19   2.0000      -0.341754        -9.2996
  20   2.0000      -0.335195        -9.1211
  21   2.0000      -0.290462        -7.9039
  22   2.0000      -0.274414        -7.4672
  23   2.0000      -0.255334        -6.9480
  24   0.0000      -0.100580        -2.7369
  25   0.0000       0.077336         2.1044
  26   0.0000       0.088227         2.4008
  27   0.0000       0.103514         2.8168
  28   0.0000       0.112617         3.0645

MULLIKEN ATOMIC CHARGES
-----------------------
   0 C :   -0.469242
   1 C :   -0.262105
   2 C :   -0.253602
   3 N :    0.211580
   4 O :   -0.176561
   5 O :   -0.195783
   6 H :    0.169086
   7 H :    0.145816
   8 H :    0.153103
   9 H :    0.153288
  10 H :    0.164451
  11 H :    0.178251
  12 H :    0.181720
Sum of atomic charges:   -0.0000000

LOEWDIN ATOMIC CHARGES
----------------------
   0 C :   -0.412683
   1 C :   -0.258869
   2 C :    0.025836
   3 N :   -0.550355
   4 O :   -0.007812
   5 O :   -0.005779
   6 H :    0.165769
   7 H :    0.154417
   8 H :    0.155263
   9 H :    0.161813
  10 H :    0.170876
  11 H :    0.201822
  12 H :    0.199703

  Mayer bond orders larger than 0.100000
B(  0-C ,  1-C ) :   0.9244 B(  0-C ,  6-H ) :   0.9737 B(  0-C ,  7-H ) :   0.9735
B(  0-C ,  8-H ) :   0.9673 B(  1-C ,  2-C ) :   0.9087 B(  1-C ,  9-H ) :   0.9607
B(  1-C , 10-H ) :   0.9665 B(  2-C ,  3-N ) :   0.8534 B(  2-C , 11-H ) :   0.9473
B(  2-C , 12-H ) :   0.9636 B(  3-N ,  4-O ) :   1.8621 B(  3-N ,  5-O ) :   1.8555
B(  4-O ,  5-O ) :   0.2755

Dispersion correction           -0.002955550
FINAL SINGLE POINT ENERGY      -323.580175761663

DIPOLE MOMENT
-------------

Method             : SCF
Type of density    : Electron Density
Multiplicity       :   1
Irrep              :   0
Energy             :  -323.5898476674099129 Eh
Relativity type    :
Basis              : AO
                                X                 Y                 Z
Electronic contribution:      8.257007255      -0.580937073       0.557460802
Nuclear contribution   :     -9.499136035       0.296837649      -1.305126225
                        -----------------------------------------
Total Dipole Moment    :     -1.242128779      -0.284099424      -0.747665422
                        -----------------------------------------
Magnitude (a.u.)       :      1.477362505
Magnitude (Debye)      :      3.755157061

Rotational constants in cm-1:             0.208505             0.088961             0.076444
Rotational constants in MHz :          6250.812316          2666.996169          2291.740852

                             ****ORCA TERMINATED NORMALLY****
TOTAL RUN TIME: 0 days 0 hours 0 minutes 22 seconds 733 msec
