                         Program Version 6.0.0  -   RELEASE  -
|  1> ! r2scan-3c def2/J RI DEFGRID2 scfconv6 printgap
|  2> %output
|  3>     printlevel normal
|  4> end
|  5> %cpcm
|  6>     smd true
|  7>     smdsolvent "water"
|  8> end
|  9> * xyz 0 1
| 10> C -1.9757638942 0.8048538496 0.4390015034
| 11> C -1.4920851305 -0.533247481 -0.1037677452
| 12> C -0.216523891 -0.3877771712 -0.9498249628
| 13> N 0.8909634828 -0.0642681718 -0.0633109144
| 14> O 1.1906788696 1.1032453455 0.0833564737
| 15> O 1.4359983147 -0.9796056335 0.5216614357
| 16> H -1.2084737293 1.2893081373 1.040068737
| 17> H -2.24098825 1.4742763499 -0.3752491464
| 18> H -2.8522345006 0.6585153703 1.063653014
| 19> H -2.261758852 -0.9698970652 -0.7392399342
| 20> H -1.2941470133 -1.2264976203 0.7161386461
| 21> H 0.0131340331 -1.3352788622 -1.4373967768
| 22> H -0.3274618267 0.4243940025 -1.668311496
| 23> *
| 24>
| 25>                          ****END OF INPUT****

CARTESIAN COORDINATES (ANGSTROEM)
---------------------------------
  C     -1.975764    0.804854    0.439002
  C     -1.492085   -0.533247   -0.103768
  C     -0.216524   -0.387777   -0.949825
  N      0.890963   -0.064268   -0.063311
  O      1.190679    1.103245    0.083356
  O      1.435998   -0.979606    0.521661
  H     -1.208474    1.289308    1.040069
  H     -2.240988    1.474276   -0.375249
  H     -2.852235    0.658515    1.063653
  H     -2.261759   -0.969897   -0.739240
  H     -1.294147   -1.226498    0.716139
  H      0.013134   -1.335279   -1.437397
  H     -0.327462    0.424394   -1.668311

 Total Charge           Charge          ....    0
 Multiplicity           Mult            ....    1
 Number of Electrons    NEL             ....   48
 Basis Dimension        Dim             ....  164

ORBITAL ENERGIES
----------------

  NO   OCC          E(Eh)            E(eV)
   0   2.0000     -18.996104      -516.9103
   1   2.0000     -18.994622      -516.8699
   2   2.0000     -14.397239      -391.7688
   3   2.0000     -10.080541      -274.3055
   4   2.0000     -10.042236      -273.2631
   5   2.0000     -10.015439      -272.5339
   6   2.0000      -1.215406       -33.0729
   7   2.0000      -1.037543       -28.2330
   8   2.0000      -0.807784       -21.9809
   9   2.0000      -0.713240       -19.4082
  10   2.0000      -0.608960       -16.5706
  11   2.0000      -0.562198       -15.2982
  12   2.0000      -0.527776       -14.3615
  13   2.0000      -0.504319       -13.7232
  14   2.0000      -0.493353       -13.4248
  15   2.0000      -0.425368       -11.5748
  16   2.0000      -0.405053       -11.0221
  17   2.0000      -0.380517       -10.3544
  18   2.0000      -0.330386        -8.9903
  19   2.0000      -0.325505        -8.8574
  20   2.0000      -0.316335        -8.6079
  21   2.0000      -0.301383        -8.2011
  22   2.0000      -0.284268        -7.7353
  23   2.0000      -0.268561        -7.3079
  24   0.0000      -0.109122        -2.9694
  25   0.0000       0.094656         2.5757
  26   0.0000       0.104320         2.8387
  27   0.0000       0.123147         3.3510
  28   0.0000       0.130859         3.5609

MULLIKEN ATOMIC CHARGES
-----------------------
   0 C :   -0.519956
   1 C :   -0.248444
   2 C :   -0.266202
   3 N :    0.253788
   4 O :   -0.231852
   5 O :   -0.254974
   6 H :    0.164113
   7 H :    0.165055
   8 H :    0.167379
   9 H :    0.179627
  10 H :    0.169835
  11 H :    0.210059
  12 H :    0.211572
Sum of atomic charges:    0.0000000

LOEWDIN ATOMIC CHARGES
----------------------
   0 C :   -0.420083
   1 C :   -0.250569
   2 C :    0.040751
   3 N :   -0.542553
   4 O :   -0.040492
   5 O :   -0.041339
   6 H :    0.161042
   7 H :    0.159233
   8 H :    0.159764
   9 H :    0.173533
  10 H :    0.172217
  11 H :    0.215928
  12 H :    0.212566

  Mayer bond orders larger than 0.100000
B(  0-C ,  1-C ) :   0.9075 B(  0-C ,  6-H ) :   0.9766 B(  0-C ,  7-H ) :   0.9715
B(  0-C ,  8-H ) :   0.9639 B(  1-C ,  2-C ) :   0.8774 B(  1-C ,  9-H ) :   0.9533
B(  1-C , 10-H ) :   0.9680 B(  2-C ,  3-N ) :   0.8672 B(  2-C , 11-H ) :   0.9346
B(  2-C , 12-H ) :   0.9524 B(  3-N ,  4-O ) :   1.8163 B(  3-N ,  5-O ) :   1.8078
B(  4-O ,  5-O ) :   0.2655

Dispersion correction           -0.002955550
FINAL SINGLE POINT ENERGY      -323.585586081469

DIPOLE MOMENT
-------------

Method             : SCF
Type of density    : Electron Density
Multiplicity       :   1
Irrep              :   0
Energy             :  -323.5952579872157457 Eh
Relativity type    :
Basis              : AO
                                X                 Y                 Z
Electronic contribution:      7.878003063      -0.716429915       0.246127750
Nuclear contribution   :     -9.499136035       0.296837649      -1.305126225
                        -----------------------------------------
Total Dipole Moment    :     -1.621132972      -0.419592266      -1.058998474
                        -----------------------------------------
Magnitude (a.u.)       :      1.981314602
Magnitude (Debye)      :      5.036101492

Rotational constants in cm-1:             0.208505             0.088961             0.076444
Rotational constants in MHz :          6250.812316          2666.996169          2291.740852

                             ****ORCA TERMINATED NORMALLY****
TOTAL RUN TIME: 0 days 0 hours 0 minutes 27 seconds 698 msec
