                         Program Version 6.0.0  -   RELEASE  -
|  1> ! pbe def2-sv(p) def2/J RI DEFGRID1 loosescf d4 GCP(DFT/SV(P)) printgap
|  2> %output
|  3>     printlevel normal
|  4> end
|  5> * xyz 0 1
|  6> C -3.5472402188 0.1307637912 1.8907208799
|  7> C -3.0509896536 0.5492861475 0.5056445029
|  8> H -3.1862285499 1.6287297683 0.3856053026
|  9> C -1.5836278291 0.2112954075 0.3353773883
| 10> C -1.1902529851 -1.1365182734 0.2252415498
| 11> C 0.1277459692 -1.471116184 0.0955061897
| 12> C 1.1292962084 -0.4777546189 0.0733072772
| 13> C 2.4951055753 -0.8038628104 -0.0572486762
| 14> C 3.4459045004 0.1860960568 -0.0738144376
| 15> C 3.054139957 1.5411042907 0.0405890865
| 16> C 1.7404281679 1.8758629834 0.166461937
| 17> C 0.7383756508 0.8802943844 0.1865166353
| 18> C -0.6281941207 1.1948827409 0.313021644
| 19> O 4.7892404674 -0.0096132121 -0.1944080119
| 20> C 5.2711875313 -1.3338469919 -0.3143826553
| 21> C -3.8252677296 -0.1669992153 -0.5867888376
| 22> O -4.4784397572 -1.1681594393 -0.409441983
| 23> O -3.727652784 0.3518141287 -1.810298879
| 24> H -2.9476891259 0.6105820114 2.658985929
| 25> H -4.5889153917 0.4144314109 2.0175601488
| 26> H -3.474254759 -0.9473324042 2.0055349894
| 27> H -1.9491435136 -1.9057368501 0.2372151309
| 28> H 0.418882958 -2.5075152569 0.008386518
| 29> H 2.7610312169 -1.8456351414 -0.1418760987
| 30> H 3.8320926614 2.2878296814 0.0237328105
| 31> H 1.4495018308 2.9116735861 0.2535615446
| 32> H -0.9082572785 2.2345710293 0.4034911859
| 33> H 5.0175589776 -1.9265896036 0.5683588553
| 34> H 6.3516695343 -1.2405861996 -0.3953431996
| 35> H 4.8747447471 -1.8172473341 -1.2111017775
| 36> H -3.183974688 1.1583009667 -1.8609393875
| 37> *
| 38>
| 39>                          ****END OF INPUT****

CARTESIAN COORDINATES (ANGSTROEM)
---------------------------------
  C     -3.547240    0.130764    1.890721
  C     -3.050990    0.549286    0.505645
  H     -3.186229    1.628730    0.385605
  C     -1.583628    0.211295    0.335377
  C     -1.190253   -1.136518    0.225242
  C      0.127746   -1.471116    0.095506
  C      1.129296   -0.477755    0.073307
  C      2.495106   -0.803863   -0.057249
  C      3.445905    0.186096   -0.073814
  C      3.054140    1.541104    0.040589
  C      1.740428    1.875863    0.166462
  C      0.738376    0.880294    0.186517
  C     -0.628194    1.194883    0.313022
  O      4.789240   -0.009613   -0.194408
  C      5.271188   -1.333847   -0.314383
  C     -3.825268   -0.166999   -0.586789
  O     -4.478440   -1.168159   -0.409442
  O     -3.727653    0.351814   -1.810299
  H     -2.947689    0.610582    2.658986
  H     -4.588915    0.414431    2.017560
  H     -3.474255   -0.947332    2.005535
  H     -1.949144   -1.905737    0.237215
  H      0.418883   -2.507515    0.008387
  H      2.761031   -1.845635   -0.141876
  H      3.832093    2.287830    0.023733
  H      1.449502    2.911674    0.253562
  H     -0.908257    2.234571    0.403491
  H      5.017559   -1.926590    0.568359
  H      6.351670   -1.240586   -0.395343
  H      4.874745   -1.817247   -1.211102
  H     -3.183975    1.158301   -1.860939

 Total Charge           Charge          ....    0
 Multiplicity           Mult            ....    1
 Number of Electrons    NEL             ....  122
 Basis Dimension        Dim             ....  266

ORBITAL ENERGIES
----------------

  NO   OCC          E(Eh)            E(eV)
   0   2.0000     -18.797754      -511.5129
   1   2.0000     -18.797342      -511.5017
   2   2.0000     -18.732764      -509.7444
   3   2.0000     -10.011448      -272.4253
   4   2.0000      -9.959673      -271.0165
   5   2.0000      -9.946794      -270.6660
   6   2.0000      -9.920186      -269.9420
   7   2.0000      -9.912181      -269.7241
   8   2.0000      -9.908440      -269.6223
   9   2.0000      -9.905139      -269.5325
  10   2.0000      -9.901792      -269.4415
  11   2.0000      -9.900659      -269.4106
  12   2.0000      -9.898329      -269.3472
  13   2.0000      -9.897552      -269.3261
  14   2.0000      -9.896235      -269.2902
  15   2.0000      -9.895328      -269.2656
  16   2.0000      -9.882497      -268.9164
  17   2.0000      -1.002123       -27.2692
  18   2.0000      -0.977200       -26.5910
  19   2.0000      -0.914112       -24.8742
  20   2.0000      -0.802620       -21.8404
  21   2.0000      -0.763123       -20.7656
  22   2.0000      -0.722458       -19.6591
  23   2.0000      -0.701456       -19.0876
  24   2.0000      -0.676524       -18.4091
  25   2.0000      -0.654465       -17.8089
  26   2.0000      -0.631630       -17.1875
  27   2.0000      -0.593764       -16.1571
  28   2.0000      -0.568095       -15.4587
  29   2.0000      -0.563577       -15.3357
  30   2.0000      -0.547925       -14.9098
  31   2.0000      -0.537124       -14.6159
  32   2.0000      -0.489470       -13.3192
  33   2.0000      -0.477631       -12.9970
  34   2.0000      -0.472705       -12.8630
  35   2.0000      -0.440704       -11.9922
  36   2.0000      -0.428280       -11.6541
  37   2.0000      -0.425704       -11.5840
  38   2.0000      -0.420593       -11.4449
  39   2.0000      -0.405945       -11.0463
  40   2.0000      -0.396606       -10.7922
  41   2.0000      -0.389598       -10.6015
  42   2.0000      -0.380726       -10.3601
  43   2.0000      -0.373867       -10.1734
  44   2.0000      -0.369035       -10.0420
  45   2.0000      -0.363057        -9.8793
  46   2.0000      -0.361831        -9.8459
  47   2.0000      -0.350327        -9.5329
  48   2.0000      -0.340526        -9.2662
  49   2.0000      -0.325482        -8.8568
  50   2.0000      -0.318787        -8.6746
  51   2.0000      -0.312266        -8.4972
  52   2.0000      -0.307200        -8.3593
  53   2.0000      -0.298478        -8.1220
  54   2.0000      -0.287892        -7.8339
  55   2.0000      -0.274318        -7.4646
  56   2.0000      -0.269830        -7.3425
  57   2.0000      -0.258382        -7.0309
  58   2.0000      -0.219618        -5.9761
  59   2.0000      -0.215155        -5.8547
  60   2.0000      -0.192101        -5.2273
  61   0.0000      -0.071754        -1.9525
  62   0.0000      -0.043545        -1.1849
  63   0.0000      -0.020823        -0.5666
  64   0.0000      -0.009507        -0.2587
  65   0.0000       0.012077         0.3286

MULLIKEN ATOMIC CHARGES
-----------------------
   0 C :   -0.209185
   1 C :   -0.199599
   2 H :    0.067062
   3 C :    0.100156
   4 C :   -0.092951
   5 C :   -0.124458
   6 C :    0.170310
   7 C :   -0.299002
   8 C :    0.294708
   9 C :   -0.091897
  10 C :   -0.129923
  11 C :    0.179668
  12 C :   -0.229867
  13 O :   -0.266701
  14 C :   -0.115407
  15 C :    0.150345
  16 O :   -0.175619
  17 O :   -0.281169
  18 H :    0.102768
  19 H :    0.110155
  20 H :    0.120276
  21 H :    0.069162
  22 H :    0.038350
  23 H :    0.027102
  24 H :    0.048525
  25 H :    0.040470
  26 H :    0.021335
  27 H :    0.113353
  28 H :    0.128313
  29 H :    0.113542
  30 H :    0.320178
Sum of atomic charges:   -0.0000000

LOEWDIN ATOMIC CHARGES
----------------------
   0 C :   -0.316979
   1 C :   -0.173948
   2 H :    0.124484
   3 C :   -0.046277
   4 C :   -0.116566
   5 C :   -0.108988
   6 C :   -0.017100
   7 C :   -0.172220
   8 C :    0.030494
   9 C :   -0.131135
  10 C :   -0.106363
  11 C :   -0.034985
  12 C :   -0.120786
  13 O :   -0.087449
  14 C :   -0.201906
  15 C :    0.037304
  16 O :   -0.146035
  17 O :   -0.199875
  18 H :    0.123012
  19 H :    0.125451
  20 H :    0.129963
  21 H :    0.133204
  22 H :    0.124973
  23 H :    0.127153
  24 H :    0.132398
  25 H :    0.125435
  26 H :    0.119368
  27 H :    0.111377
  28 H :    0.123940
  29 H :    0.111446
  30 H :    0.300608

  Mayer bond orders larger than 0.100000
B(  0-C ,  1-C ) :   1.1055 B(  0-C , 18-H ) :   0.9439 B(  0-C , 19-H ) :   0.9472
B(  0-C , 20-H ) :   0.9390 B(  1-C ,  2-H ) :   0.8680 B(  1-C ,  3-C ) :   0.9949
B(  1-C , 15-C ) :   0.9332 B(  3-C ,  4-C ) :   1.2639 B(  3-C , 12-C ) :   1.4314
B(  4-C ,  5-C ) :   1.4474 B(  4-C , 21-H ) :   0.9463 B(  5-C ,  6-C ) :   1.2260
B(  5-C , 22-H ) :   0.9667 B(  6-C ,  7-C ) :   1.2039 B(  6-C , 11-C ) :   1.2572
B(  7-C ,  8-C ) :   1.3327 B(  7-C , 23-H ) :   0.9647 B(  8-C ,  9-C ) :   1.2456
B(  8-C , 13-O ) :   1.1435 B(  9-C , 10-C ) :   1.4590 B(  9-C , 24-H ) :   0.9614
B( 10-C , 11-C ) :   1.2030 B( 10-C , 25-H ) :   0.9679 B( 11-C , 12-C ) :   1.2238
B( 12-C , 26-H ) :   0.9671 B( 13-O , 14-C ) :   0.9861 B( 14-C , 27-H ) :   0.9415
B( 14-C , 28-H ) :   0.9583 B( 14-C , 29-H ) :   0.9415 B( 15-C , 16-O ) :   2.1157
B( 15-C , 17-O ) :   1.2369 B( 17-O , 30-H ) :   0.8237

Dispersion correction           -0.039095466
FINAL SINGLE POINT ENERGY      -765.989916410296

DIPOLE MOMENT
-------------

Method             : SCF
Type of density    : Electron Density
Multiplicity       :   1
Irrep              :   0
Energy             :  -766.0836083193166814 Eh
Relativity type    :
Basis              : AO
                                X                 Y                 Z
Electronic contribution:     -2.732908134       1.598563116      -4.444890261
Nuclear contribution   :      4.140214887      -0.898359306       4.611161927
                        -----------------------------------------
Total Dipole Moment    :      1.407306753       0.700203810       0.166271666
                        -----------------------------------------
Magnitude (a.u.)       :      1.580646683
Magnitude (Debye)      :      4.017684579

Rotational constants in cm-1:             0.044564             0.006927             0.006602
Rotational constants in MHz :          1336.008724           207.655152           197.916595

                             ****ORCA TERMINATED NORMALLY****
TOTAL RUN TIME: 0 days 0 hours 0 minutes 27 seconds 992 msec
