                         Program Version 6.0.0  -   RELEASE  -
|  1> ! pbe def2-sv(p) def2/J RI DEFGRID1 loosescf d4 GCP(DFT/SV(P)) printgap
|  2> %output
|  3>     printlevel normal
|  4> end
|  5> * xyz 0 1
|  6> C -2.0065860505 -1.5714759636 0.0384253679
|  7> C -2.3780182086 -0.1010348042 0.1854838806
|  8> C -1.4213058045 0.8084313514 -0.5968253187
|  9> C -0.0418409958 0.7547334378 0.0066910928
| 10> O 0.2399043081 1.1472236989 1.1201705936
| 11> O 0.8395734995 0.2210768082 -0.8296352306
| 12> C 2.1994687486 0.0717671883 -0.3892494737
| 13> C 2.3840435431 -1.2139006652 0.40263449
| 14> H -2.0085499188 -1.8621152509 -1.0092964427
| 15> H -1.0144133457 -1.7580156458 0.4442448091
| 16> H -2.7172634353 -2.1960066185 0.5731134562
| 17> H -2.3481663892 0.1846881724 1.2388837483
| 18> H -3.3911966076 0.0593310198 -0.1841130695
| 19> H -1.7724143857 1.8390522651 -0.5349386123
| 20> H -1.3613616141 0.4985973298 -1.6391178329
| 21> H 2.7854007762 0.0596844692 -1.3085535309
| 22> H 2.4655036046 0.9401030525 0.2212554284
| 23> H 1.7998167288 -1.1732937429 1.3196050672
| 24> H 2.0610474747 -2.0674088546 -0.187613056
| 25> H 3.4317237163 -1.3313107022 0.6593163095
| 26> *
| 27>
| 28>                          ****END OF INPUT****

CARTESIAN COORDINATES (ANGSTROEM)
---------------------------------
  C     -2.006586   -1.571476    0.038425
  C     -2.378018   -0.101035    0.185484
  C     -1.421306    0.808431   -0.596825
  C     -0.041841    0.754733    0.006691
  O      0.239904    1.147224    1.120171
  O      0.839573    0.221077   -0.829635
  C      2.199469    0.071767   -0.389249
  C      2.384044   -1.213901    0.402634
  H     -2.008550   -1.862115   -1.009296
  H     -1.014413   -1.758016    0.444245
  H     -2.717263   -2.196007    0.573113
  H     -2.348166    0.184688    1.238884
  H     -3.391197    0.059331   -0.184113
  H     -1.772414    1.839052   -0.534939
  H     -1.361362    0.498597   -1.639118
  H      2.785401    0.059684   -1.308554
  H      2.465504    0.940103    0.221255
  H      1.799817   -1.173294    1.319605
  H      2.061047   -2.067409   -0.187613
  H      3.431724   -1.331311    0.659316

 Total Charge           Charge          ....    0
 Multiplicity           Mult            ....    1
 Number of Electrons    NEL             ....   64
 Basis Dimension        Dim             ....  136

ORBITAL ENERGIES
----------------

  NO   OCC          E(Eh)            E(eV)
   0   2.0000     -18.797798      -511.5141
   1   2.0000     -18.730531      -509.6837
   2   2.0000     -10.004042      -272.2238
   3   2.0000      -9.946368      -270.6544
   4   2.0000      -9.895424      -269.2682
   5   2.0000      -9.892825      -269.1974
   6   2.0000      -9.887079      -269.0411
   7   2.0000      -9.878449      -268.8063
   8   2.0000      -1.003915       -27.3179
   9   2.0000      -0.907869       -24.7044
  10   2.0000      -0.728061       -19.8116
  11   2.0000      -0.696608       -18.9557
  12   2.0000      -0.636285       -17.3142
  13   2.0000      -0.592251       -16.1160
  14   2.0000      -0.533086       -14.5060
  15   2.0000      -0.492126       -13.3914
  16   2.0000      -0.452592       -12.3156
  17   2.0000      -0.433848       -11.8056
  18   2.0000      -0.424699       -11.5566
  19   2.0000      -0.396008       -10.7759
  20   2.0000      -0.388300       -10.5662
  21   2.0000      -0.375721       -10.2239
  22   2.0000      -0.362886        -9.8746
  23   2.0000      -0.351607        -9.5677
  24   2.0000      -0.338737        -9.2175
  25   2.0000      -0.330310        -8.9882
  26   2.0000      -0.306116        -8.3298
  27   2.0000      -0.299448        -8.1484
  28   2.0000      -0.297617        -8.0986
  29   2.0000      -0.287239        -7.8162
  30   2.0000      -0.255381        -6.9493
  31   2.0000      -0.216691        -5.8964
  32   0.0000      -0.020561        -0.5595
  33   0.0000       0.036520         0.9938
  34   0.0000       0.057463         1.5637
  35   0.0000       0.070170         1.9094
  36   0.0000       0.079709         2.1690

MULLIKEN ATOMIC CHARGES
-----------------------
   0 C :   -0.291969
   1 C :   -0.208895
   2 C :   -0.110033
   3 C :    0.087078
   4 O :   -0.213072
   5 O :   -0.234856
   6 C :   -0.014152
   7 C :   -0.310584
   8 H :    0.100364
   9 H :    0.118000
  10 H :    0.107785
  11 H :    0.107937
  12 H :    0.094223
  13 H :    0.109777
  14 H :    0.092014
  15 H :    0.101390
  16 H :    0.107020
  17 H :    0.130386
  18 H :    0.115382
  19 H :    0.112207
Sum of atomic charges:   -0.0000000

LOEWDIN ATOMIC CHARGES
----------------------
   0 C :   -0.343386
   1 C :   -0.225378
   2 C :   -0.244900
   3 C :    0.036838
   4 O :   -0.175523
   5 O :   -0.065693
   6 C :   -0.112923
   7 C :   -0.357850
   8 H :    0.118427
   9 H :    0.119416
  10 H :    0.121719
  11 H :    0.124024
  12 H :    0.118261
  13 H :    0.140255
  14 H :    0.126146
  15 H :    0.116818
  16 H :    0.119238
  17 H :    0.130096
  18 H :    0.124178
  19 H :    0.130237

  Mayer bond orders larger than 0.100000
B(  0-C ,  1-C ) :   1.1531 B(  0-C ,  8-H ) :   0.9536 B(  0-C ,  9-H ) :   0.9470
B(  0-C , 10-H ) :   0.9509 B(  1-C ,  2-C ) :   1.1130 B(  1-C , 11-H ) :   0.9221
B(  1-C , 12-H ) :   0.9289 B(  2-C ,  3-C ) :   1.0213 B(  2-C , 13-H ) :   0.8951
B(  2-C , 14-H ) :   0.9090 B(  3-C ,  4-O ) :   2.0363 B(  3-C ,  5-O ) :   1.2128
B(  5-O ,  6-C ) :   0.9244 B(  6-C ,  7-C ) :   1.1741 B(  6-C , 15-H ) :   0.9373
B(  6-C , 16-H ) :   0.9143 B(  7-C , 17-H ) :   0.9430 B(  7-C , 18-H ) :   0.9469
B(  7-C , 19-H ) :   0.9435

Dispersion correction           -0.015606860
FINAL SINGLE POINT ENERGY      -385.458444366871

DIPOLE MOMENT
-------------

Method             : SCF
Type of density    : Electron Density
Multiplicity       :   1
Irrep              :   0
Energy             :  -385.5332584262835667 Eh
Relativity type    :
Basis              : AO
                                X                 Y                 Z
Electronic contribution:      2.052492171       5.969429385      -0.160066759
Nuclear contribution   :     -1.925879613      -6.365524727      -0.377726250
                        -----------------------------------------
Total Dipole Moment    :      0.126612557      -0.396095341      -0.537793009
                        -----------------------------------------
Magnitude (a.u.)       :      0.679811429
Magnitude (Debye)      :      1.727943331

Rotational constants in cm-1:             0.107153             0.042471             0.037060
Rotational constants in MHz :          3212.366029          1273.254562          1111.027152

                             ****ORCA TERMINATED NORMALLY****
TOTAL RUN TIME: 0 days 0 hours 0 minutes 10 seconds 838 msec
