                         Program Version 6.0.0  -   RELEASE  -
|  1> ! r2scan-3c def2/J RI DEFGRID2 scfconv6 printgap
|  2> %output
|  3>     printlevel normal
|  4> end
|  5> * xyz 0 1
|  6> C -3.3903142784 -1.010175648 0.0610187833
|  7> C -1.9698816918 -0.626974563 0.4551275362
|  8> C -1.3099267756 0.2445210939 -0.6234585253
|  9> C 0.0701976762 0.6372021056 -0.1699550236
| 10> O 0.3071076985 1.4805625759 0.6704059384
| 11> O 1.0069740117 -0.0720902983 -0.7858983858
| 12> C 2.3811382935 0.1352806501 -0.4171897929
| 13> C 2.7738629231 -0.7593206577 0.7484849343
| 14> H -3.8400037848 -1.6258641353 0.8351144031
| 15> H -4.00168792 -0.1214327126 -0.0719680243
| 16> H -3.388392873 -1.5711338961 -0.8698853981
| 17> H -1.3724719626 -1.5291035261 0.6007901269
| 18> H -1.9797528149 -0.0734466273 1.3963130977
| 19> H -1.9001793642 1.1499563629 -0.7656915949
| 20> H -1.2344861265 -0.3061746693 -1.559793147
| 21> H 2.9483108988 -0.110253362 -1.3154613873
| 22> H 2.5163738618 1.1895480132 -0.1572956972
| 23> H 2.5926373096 -1.8010989331 0.4986989482
| 24> H 3.8272384866 -0.6210946529 0.968960025
| 25> H 2.1916379057 -0.4990733981 1.6297023381
| 26> *
| 27>
| 28>                          ****END OF INPUT****

CARTESIAN COORDINATES (ANGSTROEM)
---------------------------------
  C     -3.390314   -1.010176    0.061019
  C     -1.969882   -0.626975    0.455128
  C     -1.309927    0.244521   -0.623459
  C      0.070198    0.637202   -0.169955
  O      0.307108    1.480563    0.670406
  O      1.006974   -0.072090   -0.785898
  C      2.381138    0.135281   -0.417190
  C      2.773863   -0.759321    0.748485
  H     -3.840004   -1.625864    0.835114
  H     -4.001688   -0.121433   -0.071968
  H     -3.388393   -1.571134   -0.869885
  H     -1.372472   -1.529104    0.600790
  H     -1.979753   -0.073447    1.396313
  H     -1.900179    1.149956   -0.765692
  H     -1.234486   -0.306175   -1.559793
  H      2.948311   -0.110253   -1.315461
  H      2.516374    1.189548   -0.157296
  H      2.592637   -1.801099    0.498699
  H      3.827238   -0.621095    0.968960
  H      2.191638   -0.499073    1.629702

 Total Charge           Charge          ....    0
 Multiplicity           Mult            ....    1
 Number of Electrons    NEL             ....   64
 Basis Dimension        Dim             ....  222

ORBITAL ENERGIES
----------------

  NO   OCC          E(Eh)            E(eV)
   0   2.0000     -18.995851      -516.9034
   1   2.0000     -18.925743      -514.9956
   2   2.0000     -10.150153      -276.1997
   3   2.0000     -10.090214      -274.5687
   4   2.0000     -10.039931      -273.2004
   5   2.0000     -10.037855      -273.1439
   6   2.0000     -10.028816      -272.8980
   7   2.0000     -10.023120      -272.7429
   8   2.0000      -1.070216       -29.1221
   9   2.0000      -0.973672       -26.4950
  10   2.0000      -0.774108       -21.0645
  11   2.0000      -0.740017       -20.1369
  12   2.0000      -0.680732       -18.5237
  13   2.0000      -0.621689       -16.9170
  14   2.0000      -0.567994       -15.4559
  15   2.0000      -0.521478       -14.1901
  16   2.0000      -0.472199       -12.8492
  17   2.0000      -0.454225       -12.3601
  18   2.0000      -0.442864       -12.0510
  19   2.0000      -0.421225       -11.4621
  20   2.0000      -0.410751       -11.1771
  21   2.0000      -0.391768       -10.6605
  22   2.0000      -0.369599       -10.0573
  23   2.0000      -0.364405        -9.9160
  24   2.0000      -0.358010        -9.7420
  25   2.0000      -0.343630        -9.3506
  26   2.0000      -0.325449        -8.8559
  27   2.0000      -0.310964        -8.4618
  28   2.0000      -0.309124        -8.4117
  29   2.0000      -0.303707        -8.2643
  30   2.0000      -0.269574        -7.3355
  31   2.0000      -0.233390        -6.3509
  32   0.0000      -0.013713        -0.3731
  33   0.0000       0.077815         2.1175
  34   0.0000       0.093007         2.5309
  35   0.0000       0.103087         2.8051
  36   0.0000       0.122469         3.3326

MULLIKEN ATOMIC CHARGES
-----------------------
   0 C :   -0.473382
   1 C :   -0.227311
   2 C :   -0.347312
   3 C :    0.421004
   4 O :   -0.434945
   5 O :   -0.179747
   6 C :   -0.140224
   7 C :   -0.468396
   8 H :    0.150738
   9 H :    0.146139
  10 H :    0.144333
  11 H :    0.140138
  12 H :    0.161778
  13 H :    0.161201
  14 H :    0.159594
  15 H :    0.147498
  16 H :    0.169379
  17 H :    0.151654
  18 H :    0.147418
  19 H :    0.170445
Sum of atomic charges:    0.0000000

LOEWDIN ATOMIC CHARGES
----------------------
   0 C :   -0.419890
   1 C :   -0.287798
   2 C :   -0.229545
   3 C :    0.357192
   4 O :   -0.436292
   5 O :   -0.595624
   6 C :    0.027039
   7 C :   -0.390630
   8 H :    0.153104
   9 H :    0.151367
  10 H :    0.150546
  11 H :    0.156034
  12 H :    0.163254
  13 H :    0.178061
  14 H :    0.176170
  15 H :    0.177395
  16 H :    0.189123
  17 H :    0.156630
  18 H :    0.159207
  19 H :    0.164655

  Mayer bond orders larger than 0.100000
B(  0-C ,  1-C ) :   0.8943 B(  0-C ,  8-H ) :   0.9723 B(  0-C ,  9-H ) :   0.9857
B(  0-C , 10-H ) :   0.9834 B(  1-C ,  2-C ) :   0.9226 B(  1-C , 11-H ) :   0.9569
B(  1-C , 12-H ) :   0.9628 B(  2-C ,  3-C ) :   0.9604 B(  2-C , 13-H ) :   0.9720
B(  2-C , 14-H ) :   0.9849 B(  3-C ,  4-O ) :   1.8317 B(  3-C ,  5-O ) :   1.0403
B(  5-O ,  6-C ) :   0.8124 B(  6-C ,  7-C ) :   0.9364 B(  6-C , 15-H ) :   0.9617
B(  6-C , 16-H ) :   0.9657 B(  7-C , 17-H ) :   0.9742 B(  7-C , 18-H ) :   0.9657
B(  7-C , 19-H ) :   0.9718

Dispersion correction           -0.004992282
FINAL SINGLE POINT ENERGY      -386.235823061908

DIPOLE MOMENT
-------------

Method             : SCF
Type of density    : Electron Density
Multiplicity       :   1
Irrep              :   0
Energy             :  -386.2425060162891555 Eh
Relativity type    :
Basis              : AO
                                X                 Y                 Z
Electronic contribution:      3.518664953       4.859364058      -1.496936721
Nuclear contribution   :     -3.396169738      -5.532284559       1.114221446
                        -----------------------------------------
Total Dipole Moment    :      0.122495215      -0.672920501      -0.382715275
                        -----------------------------------------
Magnitude (a.u.)       :      0.783771689
Magnitude (Debye)      :      1.992189311

Rotational constants in cm-1:             0.140258             0.031847             0.030205
Rotational constants in MHz :          4204.833461           954.734550           905.526873

                             ****ORCA TERMINATED NORMALLY****
TOTAL RUN TIME: 0 days 0 hours 0 minutes 31 seconds 370 msec
