                         Program Version 6.0.0  -   RELEASE  -
|  1> ! r2scan-3c def2/J RI DEFGRID2 scfconv6 printgap
|  2> %output
|  3>     printlevel normal
|  4> end
|  5> %cpcm
|  6>     smd true
|  7>     smdsolvent "water"
|  8> end
|  9> * xyz 0 1
| 10> C -3.3903142784 -1.010175648 0.0610187833
| 11> C -1.9698816918 -0.626974563 0.4551275362
| 12> C -1.3099267756 0.2445210939 -0.6234585253
| 13> C 0.0701976762 0.6372021056 -0.1699550236
| 14> O 0.3071076985 1.4805625759 0.6704059384
| 15> O 1.0069740117 -0.0720902983 -0.7858983858
| 16> C 2.3811382935 0.1352806501 -0.4171897929
| 17> C 2.7738629231 -0.7593206577 0.7484849343
| 18> H -3.8400037848 -1.6258641353 0.8351144031
| 19> H -4.00168792 -0.1214327126 -0.0719680243
| 20> H -3.388392873 -1.5711338961 -0.8698853981
| 21> H -1.3724719626 -1.5291035261 0.6007901269
| 22> H -1.9797528149 -0.0734466273 1.3963130977
| 23> H -1.9001793642 1.1499563629 -0.7656915949
| 24> H -1.2344861265 -0.3061746693 -1.559793147
| 25> H 2.9483108988 -0.110253362 -1.3154613873
| 26> H 2.5163738618 1.1895480132 -0.1572956972
| 27> H 2.5926373096 -1.8010989331 0.4986989482
| 28> H 3.8272384866 -0.6210946529 0.968960025
| 29> H 2.1916379057 -0.4990733981 1.6297023381
| 30> *
| 31>
| 32>                          ****END OF INPUT****

CARTESIAN COORDINATES (ANGSTROEM)
---------------------------------
  C     -3.390314   -1.010176    0.061019
  C     -1.969882   -0.626975    0.455128
  C     -1.309927    0.244521   -0.623459
  C      0.070198    0.637202   -0.169955
  O      0.307108    1.480563    0.670406
  O      1.006974   -0.072090   -0.785898
  C      2.381138    0.135281   -0.417190
  C      2.773863   -0.759321    0.748485
  H     -3.840004   -1.625864    0.835114
  H     -4.001688   -0.121433   -0.071968
  H     -3.388393   -1.571134   -0.869885
  H     -1.372472   -1.529104    0.600790
  H     -1.979753   -0.073447    1.396313
  H     -1.900179    1.149956   -0.765692
  H     -1.234486   -0.306175   -1.559793
  H      2.948311   -0.110253   -1.315461
  H      2.516374    1.189548   -0.157296
  H      2.592637   -1.801099    0.498699
  H      3.827238   -0.621095    0.968960
  H      2.191638   -0.499073    1.629702

 Total Charge           Charge          ....    0
 Multiplicity           Mult            ....    1
 Number of Electrons    NEL             ....   64
 Basis Dimension        Dim             ....  222

ORBITAL ENERGIES
----------------

  NO   OCC          E(Eh)            E(eV)
   0   2.0000     -19.002413      -517.0819
   1   2.0000     -18.942572      -515.4536
   2   2.0000     -10.161620      -276.5117
   3   2.0000     -10.082987      -274.3720
   4   2.0000     -10.034550      -273.0540
   5   2.0000     -10.030057      -272.9317
   6   2.0000     -10.018420      -272.6151
   7   2.0000     -10.011902      -272.4377
   8   2.0000      -1.078438       -29.3458
   9   2.0000      -0.988344       -26.8942
  10   2.0000      -0.769022       -20.9262
  11   2.0000      -0.733183       -19.9509
  12   2.0000      -0.674171       -18.3451
  13   2.0000      -0.616476       -16.7752
  14   2.0000      -0.560381       -15.2487
  15   2.0000      -0.519911       -14.1475
  16   2.0000      -0.472652       -12.8615
  17   2.0000      -0.460085       -12.5196
  18   2.0000      -0.442304       -12.0357
  19   2.0000      -0.423530       -11.5248
  20   2.0000      -0.407875       -11.0988
  21   2.0000      -0.384673       -10.4675
  22   2.0000      -0.362884        -9.8746
  23   2.0000      -0.359884        -9.7929
  24   2.0000      -0.354154        -9.6370
  25   2.0000      -0.339037        -9.2257
  26   2.0000      -0.319215        -8.6863
  27   2.0000      -0.305588        -8.3155
  28   2.0000      -0.303541        -8.2598
  29   2.0000      -0.299073        -8.1382
  30   2.0000      -0.277511        -7.5515
  31   2.0000      -0.250134        -6.8065
  32   0.0000      -0.022653        -0.6164
  33   0.0000       0.079559         2.1649
  34   0.0000       0.100482         2.7343
  35   0.0000       0.113074         3.0769
  36   0.0000       0.131787         3.5861

MULLIKEN ATOMIC CHARGES
-----------------------
   0 C :   -0.517379
   1 C :   -0.219039
   2 C :   -0.369596
   3 C :    0.459452
   4 O :   -0.518372
   5 O :   -0.199135
   6 C :   -0.144791
   7 C :   -0.493075
   8 H :    0.162249
   9 H :    0.159027
  10 H :    0.158930
  11 H :    0.154999
  12 H :    0.159393
  13 H :    0.181687
  14 H :    0.176444
  15 H :    0.173605
  16 H :    0.171476
  17 H :    0.165986
  18 H :    0.170645
  19 H :    0.167493
Sum of atomic charges:    0.0000000

LOEWDIN ATOMIC CHARGES
----------------------
   0 C :   -0.425033
   1 C :   -0.286064
   2 C :   -0.227289
   3 C :    0.366138
   4 O :   -0.496816
   5 O :   -0.597890
   6 C :    0.031769
   7 C :   -0.393250
   8 H :    0.156328
   9 H :    0.154757
  10 H :    0.154926
  11 H :    0.160848
  12 H :    0.161644
  13 H :    0.185240
  14 H :    0.184120
  15 H :    0.188821
  16 H :    0.189853
  17 H :    0.161824
  18 H :    0.167776
  19 H :    0.162296

  Mayer bond orders larger than 0.100000
B(  0-C ,  1-C ) :   0.8875 B(  0-C ,  8-H ) :   0.9690 B(  0-C ,  9-H ) :   0.9830
B(  0-C , 10-H ) :   0.9808 B(  1-C ,  2-C ) :   0.9105 B(  1-C , 11-H ) :   0.9543
B(  1-C , 12-H ) :   0.9630 B(  2-C ,  3-C ) :   0.9596 B(  2-C , 13-H ) :   0.9670
B(  2-C , 14-H ) :   0.9756 B(  3-C ,  4-O ) :   1.7628 B(  3-C ,  5-O ) :   1.0643
B(  5-O ,  6-C ) :   0.7953 B(  6-C ,  7-C ) :   0.9358 B(  6-C , 15-H ) :   0.9524
B(  6-C , 16-H ) :   0.9617 B(  7-C , 17-H ) :   0.9701 B(  7-C , 18-H ) :   0.9606
B(  7-C , 19-H ) :   0.9692

Dispersion correction           -0.004992282
FINAL SINGLE POINT ENERGY      -386.240839244523

DIPOLE MOMENT
-------------

Method             : SCF
Type of density    : Electron Density
Multiplicity       :   1
Irrep              :   0
Energy             :  -386.2475221989039937 Eh
Relativity type    :
Basis              : AO
                                X                 Y                 Z
Electronic contribution:      3.560399226       4.586440800      -1.728865008
Nuclear contribution   :     -3.396169738      -5.532284559       1.114221446
                        -----------------------------------------
Total Dipole Moment    :      0.164229488      -0.945843758      -0.614643562
                        -----------------------------------------
Magnitude (a.u.)       :      1.139902824
Magnitude (Debye)      :      2.897402718

Rotational constants in cm-1:             0.140258             0.031847             0.030205
Rotational constants in MHz :          4204.833461           954.734550           905.526873

                             ****ORCA TERMINATED NORMALLY****
TOTAL RUN TIME: 0 days 0 hours 0 minutes 36 seconds 216 msec
