                         Program Version 6.0.0  -   RELEASE  -
|  1> ! r2scan-3c def2/J RI DEFGRID2 scfconv6 printgap
|  2> %output
|  3>     printlevel normal
|  4> end
|  5> * xyz 0 1
|  6> C 2.7154853797 -1.0326068545 -0.3352341399
|  7> C 2.3669841082 0.1980968251 0.4962811648
|  8> C 1.4179989576 1.1683100796 -0.2209951652
|  9> C -0.056834424 1.01262243 0.1638387336
| 10> C -0.6336979066 -0.3285006598 -0.2515105436
| 11> Cl -2.4048326394 -0.3765551173 0.0731464609
| 12> H 3.3861828968 -1.6835914832 0.2208695665
| 13> H 3.2154369644 -0.7362577706 -1.2546221713
| 14> H 1.8277230886 -1.600317254 -0.5980984826
| 15> H 1.9233191087 -0.1122564645 1.4437577859
| 16> H 3.2967818689 0.7196425667 0.731297298
| 17> H 1.5242298376 1.0482224579 -1.3001592247
| 18> H 1.7027813797 2.1925083895 0.0238464048
| 19> H -0.6294350394 1.805697706 -0.3213246221
| 20> H -0.1676830821 1.1344576078 1.2428974376
| 21> H -0.5171808414 -0.5016876407 -1.3200306112
| 22> H -0.2080646166 -1.1514765639 0.3177971442
| 23> *
| 24>
| 25>                          ****END OF INPUT****

CARTESIAN COORDINATES (ANGSTROEM)
---------------------------------
  C      2.715485   -1.032607   -0.335234
  C      2.366984    0.198097    0.496281
  C      1.417999    1.168310   -0.220995
  C     -0.056834    1.012622    0.163839
  C     -0.633698   -0.328501   -0.251511
  Cl    -2.404833   -0.376555    0.073146
  H      3.386183   -1.683591    0.220870
  H      3.215437   -0.736258   -1.254622
  H      1.827723   -1.600317   -0.598098
  H      1.923319   -0.112256    1.443758
  H      3.296782    0.719643    0.731297
  H      1.524230    1.048222   -1.300159
  H      1.702781    2.192508    0.023846
  H     -0.629435    1.805698   -0.321325
  H     -0.167683    1.134458    1.242897
  H     -0.517181   -0.501688   -1.320031
  H     -0.208065   -1.151477    0.317797

 Total Charge           Charge          ....    0
 Multiplicity           Mult            ....    1
 Number of Electrons    NEL             ....   58
 Basis Dimension        Dim             ....  177

ORBITAL ENERGIES
----------------

  NO   OCC          E(Eh)            E(eV)
   0   2.0000    -101.196267     -2753.6904
   1   2.0000     -10.090907      -274.5875
   2   2.0000     -10.040547      -273.2172
   3   2.0000     -10.036274      -273.1009
   4   2.0000     -10.033846      -273.0348
   5   2.0000     -10.024565      -272.7823
   6   2.0000      -9.352286      -254.4886
   7   2.0000      -7.098472      -193.1592
   8   2.0000      -7.088368      -192.8843
   9   2.0000      -7.088318      -192.8829
  10   2.0000      -0.820905       -22.3380
  11   2.0000      -0.771111       -20.9830
  12   2.0000      -0.711354       -19.3569
  13   2.0000      -0.643749       -17.5173
  14   2.0000      -0.583235       -15.8706
  15   2.0000      -0.546396       -14.8682
  16   2.0000      -0.457475       -12.4485
  17   2.0000      -0.437307       -11.8997
  18   2.0000      -0.423628       -11.5275
  19   2.0000      -0.390423       -10.6240
  20   2.0000      -0.385446       -10.4885
  21   2.0000      -0.369538       -10.0556
  22   2.0000      -0.353125        -9.6090
  23   2.0000      -0.334405        -9.0996
  24   2.0000      -0.309640        -8.4257
  25   2.0000      -0.303663        -8.2631
  26   2.0000      -0.296313        -8.0631
  27   2.0000      -0.262967        -7.1557
  28   2.0000      -0.260665        -7.0930
  29   0.0000       0.006803         0.1851
  30   0.0000       0.089818         2.4441
  31   0.0000       0.095294         2.5931
  32   0.0000       0.105828         2.8797
  33   0.0000       0.108378         2.9491

MULLIKEN ATOMIC CHARGES
-----------------------
   0 C :   -0.472500
   1 C :   -0.257555
   2 C :   -0.255347
   3 C :   -0.295855
   4 C :   -0.198266
   5 Cl:   -0.201862
   6 H :    0.147963
   7 H :    0.150827
   8 H :    0.141549
   9 H :    0.144842
  10 H :    0.142750
  11 H :    0.145318
  12 H :    0.152275
  13 H :    0.156846
  14 H :    0.163864
  15 H :    0.167108
  16 H :    0.168042
Sum of atomic charges:    0.0000000

LOEWDIN ATOMIC CHARGES
----------------------
   0 C :   -0.425444
   1 C :   -0.320757
   2 C :   -0.308575
   3 C :   -0.327784
   4 C :   -0.327448
   5 Cl:   -0.003038
   6 H :    0.152132
   7 H :    0.150209
   8 H :    0.147954
   9 H :    0.153001
  10 H :    0.154709
  11 H :    0.156661
  12 H :    0.160072
  13 H :    0.162301
  14 H :    0.160371
  15 H :    0.157519
  16 H :    0.158115

  Mayer bond orders larger than 0.100000
B(  0-C ,  1-C ) :   0.9105 B(  0-C ,  6-H ) :   0.9727 B(  0-C ,  7-H ) :   0.9866
B(  0-C ,  8-H ) :   0.9705 B(  1-C ,  2-C ) :   0.8430 B(  1-C ,  9-H ) :   0.9755
B(  1-C , 10-H ) :   0.9617 B(  2-C ,  3-C ) :   0.8789 B(  2-C , 11-H ) :   0.9844
B(  2-C , 12-H ) :   0.9654 B(  3-C ,  4-C ) :   0.8993 B(  3-C , 13-H ) :   0.9686
B(  3-C , 14-H ) :   0.9923 B(  4-C ,  5-Cl) :   0.9812 B(  4-C , 15-H ) :   0.9576
B(  4-C , 16-H ) :   0.9560

Dispersion correction           -0.004449148
FINAL SINGLE POINT ENERGY      -657.264404649914

DIPOLE MOMENT
-------------

Method             : SCF
Type of density    : Electron Density
Multiplicity       :   1
Irrep              :   0
Energy             :  -657.2702536175770547 Eh
Relativity type    :
Basis              : AO
                                X                 Y                 Z
Electronic contribution:    -16.679350389      -1.390102186       0.760566924
Nuclear contribution   :     17.632501563       1.551417561      -0.861630201
                        -----------------------------------------
Total Dipole Moment    :      0.953151174       0.161315375      -0.101063277
                        -----------------------------------------
Magnitude (a.u.)       :      0.971974072
Magnitude (Debye)      :      2.470561753

Rotational constants in cm-1:             0.206372             0.037260             0.033465
Rotational constants in MHz :          6186.890760          1117.029834          1003.252693

                             ****ORCA TERMINATED NORMALLY****
TOTAL RUN TIME: 0 days 0 hours 0 minutes 18 seconds 829 msec
