                         Program Version 6.0.0  -   RELEASE  -
|  1> ! r2scan-3c def2/J RI DEFGRID2 scfconv6 printgap
|  2> %output
|  3>     printlevel normal
|  4> end
|  5> %cpcm
|  6>     smd true
|  7>     smdsolvent "water"
|  8> end
|  9> * xyz 0 1
| 10> C 2.7154853797 -1.0326068545 -0.3352341399
| 11> C 2.3669841082 0.1980968251 0.4962811648
| 12> C 1.4179989576 1.1683100796 -0.2209951652
| 13> C -0.056834424 1.01262243 0.1638387336
| 14> C -0.6336979066 -0.3285006598 -0.2515105436
| 15> Cl -2.4048326394 -0.3765551173 0.0731464609
| 16> H 3.3861828968 -1.6835914832 0.2208695665
| 17> H 3.2154369644 -0.7362577706 -1.2546221713
| 18> H 1.8277230886 -1.600317254 -0.5980984826
| 19> H 1.9233191087 -0.1122564645 1.4437577859
| 20> H 3.2967818689 0.7196425667 0.731297298
| 21> H 1.5242298376 1.0482224579 -1.3001592247
| 22> H 1.7027813797 2.1925083895 0.0238464048
| 23> H -0.6294350394 1.805697706 -0.3213246221
| 24> H -0.1676830821 1.1344576078 1.2428974376
| 25> H -0.5171808414 -0.5016876407 -1.3200306112
| 26> H -0.2080646166 -1.1514765639 0.3177971442
| 27> *
| 28>
| 29>                          ****END OF INPUT****

CARTESIAN COORDINATES (ANGSTROEM)
---------------------------------
  C      2.715485   -1.032607   -0.335234
  C      2.366984    0.198097    0.496281
  C      1.417999    1.168310   -0.220995
  C     -0.056834    1.012622    0.163839
  C     -0.633698   -0.328501   -0.251511
  Cl    -2.404833   -0.376555    0.073146
  H      3.386183   -1.683591    0.220870
  H      3.215437   -0.736258   -1.254622
  H      1.827723   -1.600317   -0.598098
  H      1.923319   -0.112256    1.443758
  H      3.296782    0.719643    0.731297
  H      1.524230    1.048222   -1.300159
  H      1.702781    2.192508    0.023846
  H     -0.629435    1.805698   -0.321325
  H     -0.167683    1.134458    1.242897
  H     -0.517181   -0.501688   -1.320031
  H     -0.208065   -1.151477    0.317797

 Total Charge           Charge          ....    0
 Multiplicity           Mult            ....    1
 Number of Electrons    NEL             ....   58
 Basis Dimension        Dim             ....  177

ORBITAL ENERGIES
----------------

  NO   OCC          E(Eh)            E(eV)
   0   2.0000    -101.197829     -2753.7329
   1   2.0000     -10.079868      -274.2872
   2   2.0000     -10.027134      -272.8522
   3   2.0000     -10.020123      -272.6614
   4   2.0000     -10.017075      -272.5785
   5   2.0000     -10.007477      -272.3173
   6   2.0000      -9.354242      -254.5419
   7   2.0000      -7.100001      -193.2009
   8   2.0000      -7.090500      -192.9423
   9   2.0000      -7.090456      -192.9411
  10   2.0000      -0.816630       -22.2216
  11   2.0000      -0.757693       -20.6179
  12   2.0000      -0.698515       -19.0076
  13   2.0000      -0.631063       -17.1721
  14   2.0000      -0.569598       -15.4995
  15   2.0000      -0.530809       -14.4441
  16   2.0000      -0.443436       -12.0665
  17   2.0000      -0.424000       -11.5376
  18   2.0000      -0.408660       -11.1202
  19   2.0000      -0.380773       -10.3614
  20   2.0000      -0.370909       -10.0929
  21   2.0000      -0.356388        -9.6978
  22   2.0000      -0.340536        -9.2665
  23   2.0000      -0.319907        -8.7051
  24   2.0000      -0.293153        -7.9771
  25   2.0000      -0.289477        -7.8771
  26   2.0000      -0.281482        -7.6595
  27   2.0000      -0.264232        -7.1901
  28   2.0000      -0.260423        -7.0865
  29   0.0000       0.011546         0.3142
  30   0.0000       0.105418         2.8686
  31   0.0000       0.110647         3.0109
  32   0.0000       0.120437         3.2772
  33   0.0000       0.122990         3.3467

MULLIKEN ATOMIC CHARGES
-----------------------
   0 C :   -0.509656
   1 C :   -0.266039
   2 C :   -0.274458
   3 C :   -0.302274
   4 C :   -0.203151
   5 Cl:   -0.251719
   6 H :    0.153928
   7 H :    0.159066
   8 H :    0.154904
   9 H :    0.153967
  10 H :    0.149935
  11 H :    0.157749
  12 H :    0.162556
  13 H :    0.161410
  14 H :    0.171453
  15 H :    0.190292
  16 H :    0.192037
Sum of atomic charges:    0.0000000

LOEWDIN ATOMIC CHARGES
----------------------
   0 C :   -0.433172
   1 C :   -0.322171
   2 C :   -0.307804
   3 C :   -0.329215
   4 C :   -0.321677
   5 Cl:   -0.036962
   6 H :    0.152515
   7 H :    0.151809
   8 H :    0.152132
   9 H :    0.155967
  10 H :    0.155791
  11 H :    0.160711
  12 H :    0.162916
  13 H :    0.162719
  14 H :    0.162082
  15 H :    0.166791
  16 H :    0.167567

  Mayer bond orders larger than 0.100000
B(  0-C ,  1-C ) :   0.9023 B(  0-C ,  6-H ) :   0.9717 B(  0-C ,  7-H ) :   0.9837
B(  0-C ,  8-H ) :   0.9690 B(  1-C ,  2-C ) :   0.8419 B(  1-C ,  9-H ) :   0.9752
B(  1-C , 10-H ) :   0.9641 B(  2-C ,  3-C ) :   0.8831 B(  2-C , 11-H ) :   0.9837
B(  2-C , 12-H ) :   0.9655 B(  3-C ,  4-C ) :   0.8948 B(  3-C , 13-H ) :   0.9675
B(  3-C , 14-H ) :   0.9888 B(  4-C ,  5-Cl) :   0.9385 B(  4-C , 15-H ) :   0.9505
B(  4-C , 16-H ) :   0.9501

Dispersion correction           -0.004449148
FINAL SINGLE POINT ENERGY      -657.266177683756

DIPOLE MOMENT
-------------

Method             : SCF
Type of density    : Electron Density
Multiplicity       :   1
Irrep              :   0
Energy             :  -657.2720266514195373 Eh
Relativity type    :
Basis              : AO
                                X                 Y                 Z
Electronic contribution:    -16.441945138      -1.384928728       0.705863551
Nuclear contribution   :     17.632501563       1.551417561      -0.861630201
                        -----------------------------------------
Total Dipole Moment    :      1.190556426       0.166488833      -0.155766649
                        -----------------------------------------
Magnitude (a.u.)       :      1.212190737
Magnitude (Debye)      :      3.081143991

Rotational constants in cm-1:             0.206372             0.037260             0.033465
Rotational constants in MHz :          6186.890760          1117.029834          1003.252693

                             ****ORCA TERMINATED NORMALLY****
TOTAL RUN TIME: 0 days 0 hours 0 minutes 25 seconds 302 msec
