                         Program Version 6.0.0  -   RELEASE  -
|  1> ! pbe def2-sv(p) def2/J RI DEFGRID1 loosescf d4 GCP(DFT/SV(P)) printgap
|  2> %output
|  3>     printlevel normal
|  4> end
|  5> * xyz 0 1
|  6> C -3.2857629521 -0.8593839483 -0.3342253046
|  7> C -1.8827079859 -0.6243279235 0.2121993338
|  8> C -1.5026312703 0.8542768364 0.1679128352
|  9> C -0.1130616025 1.1053503399 0.7620186024
| 10> C 0.9530837522 0.4579974583 -0.0832113373
| 11> O 1.1064137832 0.6477285664 -1.2719320329
| 12> O 1.7121325079 -0.3590962425 0.6373533454
| 13> C 2.7864223882 -1.0586664822 0.0007336421
| 14> H -3.5380955148 -1.9158719079 -0.2962685321
| 15> H -4.0178542284 -0.308140231 0.2509103365
| 16> H -3.3509756296 -0.5267344269 -1.3675788697
| 17> H -1.828353235 -0.9812745525 1.2428650789
| 18> H -1.1621342484 -1.1977846583 -0.3768093046
| 19> H -2.2364918681 1.4350202873 0.7278814171
| 20> H -1.5084328318 1.2003278666 -0.8677241483
| 21> H -0.0421529808 0.7116324156 1.7751679636
| 22> H 0.0852823628 2.1782888418 0.7745138537
| 23> H 2.7340192395 -0.9134030032 -1.0788761355
| 24> H 2.6816432785 -2.111028957 0.2549692124
| 25> H 3.7247042529 -0.666107654 0.389429422
| 26> *
| 27>
| 28>                          ****END OF INPUT****

CARTESIAN COORDINATES (ANGSTROEM)
---------------------------------
  C     -3.285763   -0.859384   -0.334225
  C     -1.882708   -0.624328    0.212199
  C     -1.502631    0.854277    0.167913
  C     -0.113062    1.105350    0.762019
  C      0.953084    0.457997   -0.083211
  O      1.106414    0.647729   -1.271932
  O      1.712133   -0.359096    0.637353
  C      2.786422   -1.058666    0.000734
  H     -3.538096   -1.915872   -0.296269
  H     -4.017854   -0.308140    0.250910
  H     -3.350976   -0.526734   -1.367579
  H     -1.828353   -0.981275    1.242865
  H     -1.162134   -1.197785   -0.376809
  H     -2.236492    1.435020    0.727881
  H     -1.508433    1.200328   -0.867724
  H     -0.042153    0.711632    1.775168
  H      0.085282    2.178289    0.774514
  H      2.734019   -0.913403   -1.078876
  H      2.681643   -2.111029    0.254969
  H      3.724704   -0.666108    0.389429

 Total Charge           Charge          ....    0
 Multiplicity           Mult            ....    1
 Number of Electrons    NEL             ....   64
 Basis Dimension        Dim             ....  136

ORBITAL ENERGIES
----------------

  NO   OCC          E(Eh)            E(eV)
   0   2.0000     -18.799725      -511.5665
   1   2.0000     -18.731007      -509.6966
   2   2.0000     -10.005141      -272.2537
   3   2.0000      -9.939720      -270.4735
   4   2.0000      -9.896177      -269.2887
   5   2.0000      -9.889162      -269.0978
   6   2.0000      -9.885184      -268.9895
   7   2.0000      -9.874736      -268.7052
   8   2.0000      -1.004204       -27.3258
   9   2.0000      -0.908622       -24.7249
  10   2.0000      -0.730963       -19.8905
  11   2.0000      -0.684942       -18.6382
  12   2.0000      -0.647287       -17.6136
  13   2.0000      -0.576454       -15.6861
  14   2.0000      -0.525669       -14.3042
  15   2.0000      -0.498972       -13.5777
  16   2.0000      -0.452118       -12.3028
  17   2.0000      -0.436255       -11.8711
  18   2.0000      -0.422259       -11.4902
  19   2.0000      -0.403017       -10.9666
  20   2.0000      -0.394816       -10.7435
  21   2.0000      -0.380874       -10.3641
  22   2.0000      -0.368089       -10.0162
  23   2.0000      -0.341169        -9.2837
  24   2.0000      -0.335101        -9.1186
  25   2.0000      -0.322367        -8.7721
  26   2.0000      -0.301868        -8.2142
  27   2.0000      -0.291875        -7.9423
  28   2.0000      -0.288452        -7.8492
  29   2.0000      -0.283894        -7.7252
  30   2.0000      -0.255103        -6.9417
  31   2.0000      -0.219543        -5.9741
  32   0.0000      -0.018804        -0.5117
  33   0.0000       0.040239         1.0950
  34   0.0000       0.056901         1.5484
  35   0.0000       0.064155         1.7457
  36   0.0000       0.074824         2.0361

MULLIKEN ATOMIC CHARGES
-----------------------
   0 C :   -0.255780
   1 C :   -0.211211
   2 C :   -0.196749
   3 C :   -0.099613
   4 C :    0.083801
   5 O :   -0.206241
   6 O :   -0.239269
   7 C :   -0.132488
   8 H :    0.102512
   9 H :    0.096503
  10 H :    0.101514
  11 H :    0.084163
  12 H :    0.102189
  13 H :    0.086351
  14 H :    0.103398
  15 H :    0.091233
  16 H :    0.112082
  17 H :    0.133182
  18 H :    0.122291
  19 H :    0.122131
Sum of atomic charges:   -0.0000000

LOEWDIN ATOMIC CHARGES
----------------------
   0 C :   -0.338640
   1 C :   -0.236758
   2 C :   -0.220277
   3 C :   -0.244525
   4 C :    0.035411
   5 O :   -0.174008
   6 O :   -0.072723
   7 C :   -0.210088
   8 H :    0.119114
   9 H :    0.116492
  10 H :    0.119348
  11 H :    0.114161
  12 H :    0.117633
  13 H :    0.116847
  14 H :    0.123850
  15 H :    0.126796
  16 H :    0.142250
  17 H :    0.124073
  18 H :    0.120588
  19 H :    0.120456

  Mayer bond orders larger than 0.100000
B(  0-C ,  1-C ) :   1.1575 B(  0-C ,  8-H ) :   0.9532 B(  0-C ,  9-H ) :   0.9546
B(  0-C , 10-H ) :   0.9545 B(  1-C ,  2-C ) :   1.1345 B(  1-C , 11-H ) :   0.9259
B(  1-C , 12-H ) :   0.9190 B(  2-C ,  3-C ) :   1.1129 B(  2-C , 13-H ) :   0.9231
B(  2-C , 14-H ) :   0.9144 B(  3-C ,  4-C ) :   1.0095 B(  3-C , 15-H ) :   0.9074
B(  3-C , 16-H ) :   0.8933 B(  4-C ,  5-O ) :   2.0597 B(  4-C ,  6-O ) :   1.2166
B(  6-O ,  7-C ) :   0.9369 B(  7-C , 17-H ) :   0.9289 B(  7-C , 18-H ) :   0.9607
B(  7-C , 19-H ) :   0.9605

Dispersion correction           -0.015093162
FINAL SINGLE POINT ENERGY      -385.452554069879

DIPOLE MOMENT
-------------

Method             : SCF
Type of density    : Electron Density
Multiplicity       :   1
Irrep              :   0
Energy             :  -385.5277075578217705 Eh
Relativity type    :
Basis              : AO
                                X                 Y                 Z
Electronic contribution:      8.018776675       2.570548359      -0.743642609
Nuclear contribution   :     -7.894009440      -2.899417326       1.330743003
                        -----------------------------------------
Total Dipole Moment    :      0.124767234      -0.328868967       0.587100394
                        -----------------------------------------
Magnitude (a.u.)       :      0.684403779
Magnitude (Debye)      :      1.739616158

Rotational constants in cm-1:             0.125142             0.033508             0.031565
Rotational constants in MHz :          3751.674525          1004.554056           946.284442

                             ****ORCA TERMINATED NORMALLY****
TOTAL RUN TIME: 0 days 0 hours 0 minutes 10 seconds 652 msec
