                         Program Version 6.0.0  -   RELEASE  -
|  1> ! pbe def2-sv(p) def2/J RI DEFGRID1 loosescf d4 GCP(DFT/SV(P)) printgap
|  2> %output
|  3>     printlevel normal
|  4> end
|  5> * xyz 0 1
|  6> C -4.3245657598 -0.9377594019 -0.0610689945
|  7> C -3.2693835252 0.03339364 0.454897087
|  8> C -1.8680846653 -0.3728271902 -0.0053719414
|  9> C -0.8383111293 0.6052341912 0.517625128
| 10> I 1.1802774932 0.0793747468 -0.1022250871
| 11> H -4.1288836954 -1.9430928916 0.3042048206
| 12> H -5.3128872749 -0.635540704 0.2747259164
| 13> H -4.3221427932 -0.9613291903 -1.1481905744
| 14> H -3.2989454015 0.057512538 1.546286304
| 15> H -3.4918550161 1.0394517949 0.0930537183
| 16> H -1.6451350656 -1.3785537303 0.3575922053
| 17> H -1.8384130391 -0.3972353868 -1.0968991831
| 18> H -0.8157223693 0.622674737 1.6040474989
| 19> H -1.0084160279 1.6095961575 0.1388306879
| 20> *
| 21>
| 22>                          ****END OF INPUT****

CARTESIAN COORDINATES (ANGSTROEM)
---------------------------------
  C     -4.324566   -0.937759   -0.061069
  C     -3.269384    0.033394    0.454897
  C     -1.868085   -0.372827   -0.005372
  C     -0.838311    0.605234    0.517625
  I      1.180277    0.079375   -0.102225
  H     -4.128884   -1.943093    0.304205
  H     -5.312887   -0.635541    0.274726
  H     -4.322143   -0.961329   -1.148191
  H     -3.298945    0.057513    1.546286
  H     -3.491855    1.039452    0.093054
  H     -1.645135   -1.378554    0.357592
  H     -1.838413   -0.397235   -1.096899
  H     -0.815722    0.622675    1.604047
  H     -1.008416    1.609596    0.138831

 Total Charge           Charge          ....    0
 Multiplicity           Mult            ....    1
 Number of Electrons    NEL             ....   58
 Basis Dimension        Dim             ....  100

ORBITAL ENERGIES
----------------

  NO   OCC          E(Eh)            E(eV)
   0   2.0000      -9.934858      -270.3412
   1   2.0000      -9.900457      -269.4051
   2   2.0000      -9.897859      -269.3344
   3   2.0000      -9.884101      -268.9601
   4   2.0000      -6.593132      -179.4082
   5   2.0000      -4.664863      -126.9374
   6   2.0000      -4.648174      -126.4833
   7   2.0000      -4.647912      -126.4761
   8   2.0000      -1.800941       -49.0061
   9   2.0000      -1.796553       -48.8867
  10   2.0000      -1.796331       -48.8806
  11   2.0000      -1.782879       -48.5146
  12   2.0000      -1.782871       -48.5144
  13   2.0000      -0.739378       -20.1195
  14   2.0000      -0.679649       -18.4942
  15   2.0000      -0.616728       -16.7820
  16   2.0000      -0.553943       -15.0735
  17   2.0000      -0.529258       -14.4018
  18   2.0000      -0.443952       -12.0805
  19   2.0000      -0.398091       -10.8326
  20   2.0000      -0.391395       -10.6504
  21   2.0000      -0.373162       -10.1543
  22   2.0000      -0.333850        -9.0845
  23   2.0000      -0.329349        -8.9620
  24   2.0000      -0.312253        -8.4968
  25   2.0000      -0.299118        -8.1394
  26   2.0000      -0.286413        -7.7937
  27   2.0000      -0.216881        -5.9016
  28   2.0000      -0.216623        -5.8946
  29   0.0000      -0.055581        -1.5124
  30   0.0000       0.032298         0.8789
  31   0.0000       0.058119         1.5815
  32   0.0000       0.060884         1.6567
  33   0.0000       0.078667         2.1406

MULLIKEN ATOMIC CHARGES
-----------------------
   0 C :   -0.256403
   1 C :   -0.207237
   2 C :   -0.152615
   3 C :   -0.341859
   4 I :   -0.042404
   5 H :    0.102346
   6 H :    0.107441
   7 H :    0.102309
   8 H :    0.090690
   9 H :    0.090694
  10 H :    0.103199
  11 H :    0.103191
  12 H :    0.150291
  13 H :    0.150356
Sum of atomic charges:    0.0000000

LOEWDIN ATOMIC CHARGES
----------------------
   0 C :   -0.337377
   1 C :   -0.232789
   2 C :   -0.246594
   3 C :   -0.328990
   4 I :    0.046468
   5 H :    0.119573
   6 H :    0.121762
   7 H :    0.119558
   8 H :    0.116542
   9 H :    0.116577
  10 H :    0.122038
  11 H :    0.122011
  12 H :    0.130601
  13 H :    0.130620

  Mayer bond orders larger than 0.100000
B(  0-C ,  1-C ) :   1.1570 B(  0-C ,  5-H ) :   0.9540 B(  0-C ,  6-H ) :   0.9522
B(  0-C ,  7-H ) :   0.9540 B(  1-C ,  2-C ) :   1.1091 B(  1-C ,  8-H ) :   0.9275
B(  1-C ,  9-H ) :   0.9275 B(  2-C ,  3-C ) :   1.0993 B(  2-C , 10-H ) :   0.9236
B(  2-C , 11-H ) :   0.9237 B(  3-C ,  4-I ) :   1.0427 B(  3-C , 12-H ) :   0.9215
B(  3-C , 13-H ) :   0.9214

Dispersion correction           -0.010357585
FINAL SINGLE POINT ENERGY      -455.119324835348

DIPOLE MOMENT
-------------

Method             : SCF
Type of density    : Electron Density
Multiplicity       :   1
Irrep              :   0
Energy             :  -455.1682424227684578 Eh
Relativity type    :
Basis              : AO
                                X                 Y                 Z
Electronic contribution:    109.091322815       7.718472060      -9.191563641
Nuclear contribution   :   -109.896134831      -7.622580106       9.362182610
                        -----------------------------------------
Total Dipole Moment    :     -0.804812016       0.095891954       0.170618969
                        -----------------------------------------
Magnitude (a.u.)       :      0.828268363
Magnitude (Debye)      :      2.105290868

Rotational constants in cm-1:             0.507791             0.024343             0.023640
Rotational constants in MHz :         15223.203800           729.777672           708.696141

                             ****ORCA TERMINATED NORMALLY****
TOTAL RUN TIME: 0 days 0 hours 0 minutes 14 seconds 29 msec
