                         Program Version 6.0.0  -   RELEASE  -
|  1> ! pbe def2-sv(p) def2/J RI DEFGRID1 loosescf d4 GCP(DFT/SV(P)) printgap
|  2> %output
|  3>     printlevel normal
|  4> end
|  5> * xyz 0 1
|  6> C -4.6376373311 -0.9509115653 -0.3129621053
|  7> C -3.9726843646 -2.1552806882 -0.1280319671
|  8> C -2.6019534779 -2.1689249609 0.0503195876
|  9> C -1.8707617315 -0.9826776958 0.0465508969
| 10> C -2.5428580325 0.2301666438 -0.140392849
| 11> C -3.9252851322 0.2331488257 -0.3185579617
| 12> C -1.8076806655 1.5010477046 -0.1529328789
| 13> O -2.386548515 2.575120374 -0.3106989003
| 14> C -0.3489052595 1.4269460468 0.0299487926
| 15> C 0.3475249169 2.6221187922 -0.0105078786
| 16> C 1.7329368955 2.636292575 0.1332401586
| 17> C 2.4164103021 1.4687499414 0.3370937562
| 18> C 1.7458166635 0.2233826932 0.4112968995
| 19> C 0.3264714644 0.1990829947 0.2349693993
| 20> C -0.4087520193 -1.0455952074 0.2443877253
| 21> O 0.1250962785 -2.1591932769 0.4031915138
| 22> N 2.4131508044 -0.9097407413 0.6635975132
| 23> C 3.8354478179 -1.075394649 0.8149267809
| 24> C 4.5638063276 -1.2469094576 -0.5260621814
| 25> O 4.6592348896 0.0081593905 -1.1671391335
| 26> H -5.707156557 -0.9372398004 -0.4520743544
| 27> H -4.5240426211 -3.0824586878 -0.1227380518
| 28> H -2.0666029602 -3.0953770219 0.196734933
| 29> H -4.4156191105 1.1849647161 -0.4603509457
| 30> H -0.208783246 3.5334993777 -0.1680015085
| 31> H 2.2659749941 3.5723883412 0.0784339498
| 32> H 3.4900383291 1.4873095654 0.4090760162
| 33> H 1.8484364352 -1.7563470159 0.6175395141
| 34> H 3.9968239161 -1.9742103401 1.4108356138
| 35> H 4.2651197073 -0.2217418731 1.3411984852
| 36> H 4.0082501585 -1.9592566341 -1.1487378082
| 37> H 5.5657725823 -1.6493546194 -0.3293990627
| 38> H 5.0669749025 -0.0983415911 -2.0356698725
| 39> *
| 40>
| 41>                          ****END OF INPUT****

CARTESIAN COORDINATES (ANGSTROEM)
---------------------------------
  C     -4.637637   -0.950912   -0.312962
  C     -3.972684   -2.155281   -0.128032
  C     -2.601953   -2.168925    0.050320
  C     -1.870762   -0.982678    0.046551
  C     -2.542858    0.230167   -0.140393
  C     -3.925285    0.233149   -0.318558
  C     -1.807681    1.501048   -0.152933
  O     -2.386549    2.575120   -0.310699
  C     -0.348905    1.426946    0.029949
  C      0.347525    2.622119   -0.010508
  C      1.732937    2.636293    0.133240
  C      2.416410    1.468750    0.337094
  C      1.745817    0.223383    0.411297
  C      0.326471    0.199083    0.234969
  C     -0.408752   -1.045595    0.244388
  O      0.125096   -2.159193    0.403192
  N      2.413151   -0.909741    0.663598
  C      3.835448   -1.075395    0.814927
  C      4.563806   -1.246909   -0.526062
  O      4.659235    0.008159   -1.167139
  H     -5.707157   -0.937240   -0.452074
  H     -4.524043   -3.082459   -0.122738
  H     -2.066603   -3.095377    0.196735
  H     -4.415619    1.184965   -0.460351
  H     -0.208783    3.533499   -0.168002
  H      2.265975    3.572388    0.078434
  H      3.490038    1.487310    0.409076
  H      1.848436   -1.756347    0.617540
  H      3.996824   -1.974210    1.410836
  H      4.265120   -0.221742    1.341198
  H      4.008250   -1.959257   -1.148738
  H      5.565773   -1.649355   -0.329399
  H      5.066975   -0.098342   -2.035670

 Total Charge           Charge          ....    0
 Multiplicity           Mult            ....    1
 Number of Electrons    NEL             ....  140
 Basis Dimension        Dim             ....  306

ORBITAL ENERGIES
----------------

  NO   OCC          E(Eh)            E(eV)
   0   2.0000     -18.761884      -510.5368
   1   2.0000     -18.742965      -510.0220
   2   2.0000     -18.735732      -509.8252
   3   2.0000     -14.013958      -381.3392
   4   2.0000      -9.971381      -271.3351
   5   2.0000      -9.967412      -271.2271
   6   2.0000      -9.951946      -270.8062
   7   2.0000      -9.949428      -270.7377
   8   2.0000      -9.938512      -270.4407
   9   2.0000      -9.908321      -269.6191
  10   2.0000      -9.905801      -269.5505
  11   2.0000      -9.904490      -269.5149
  12   2.0000      -9.904325      -269.5104
  13   2.0000      -9.904266      -269.5088
  14   2.0000      -9.903523      -269.4886
  15   2.0000      -9.900616      -269.4095
  16   2.0000      -9.899983      -269.3922
  17   2.0000      -9.899413      -269.3767
  18   2.0000      -9.895567      -269.2721
  19   2.0000      -9.888272      -269.0736
  20   2.0000      -0.938391       -25.5349
  21   2.0000      -0.934454       -25.4278
  22   2.0000      -0.928136       -25.2559
  23   2.0000      -0.867610       -23.6089
  24   2.0000      -0.791543       -21.5390
  25   2.0000      -0.775245       -21.0955
  26   2.0000      -0.718634       -19.5550
  27   2.0000      -0.702970       -19.1288
  28   2.0000      -0.683029       -18.5862
  29   2.0000      -0.676989       -18.4218
  30   2.0000      -0.652835       -17.7645
  31   2.0000      -0.602548       -16.3962
  32   2.0000      -0.592189       -16.1143
  33   2.0000      -0.574881       -15.6433
  34   2.0000      -0.564918       -15.3722
  35   2.0000      -0.530930       -14.4473
  36   2.0000      -0.519450       -14.1350
  37   2.0000      -0.493759       -13.4359
  38   2.0000      -0.487283       -13.2596
  39   2.0000      -0.481727       -13.1085
  40   2.0000      -0.459652       -12.5078
  41   2.0000      -0.444479       -12.0949
  42   2.0000      -0.429291       -11.6816
  43   2.0000      -0.421349       -11.4655
  44   2.0000      -0.416073       -11.3219
  45   2.0000      -0.406783       -11.0691
  46   2.0000      -0.405069       -11.0225
  47   2.0000      -0.392669       -10.6851
  48   2.0000      -0.383573       -10.4375
  49   2.0000      -0.379979       -10.3398
  50   2.0000      -0.376322       -10.2402
  51   2.0000      -0.369844       -10.0640
  52   2.0000      -0.362399        -9.8614
  53   2.0000      -0.353632        -9.6228
  54   2.0000      -0.352474        -9.5913
  55   2.0000      -0.343560        -9.3488
  56   2.0000      -0.331930        -9.0323
  57   2.0000      -0.324394        -8.8272
  58   2.0000      -0.317171        -8.6307
  59   2.0000      -0.311931        -8.4881
  60   2.0000      -0.304021        -8.2728
  61   2.0000      -0.300336        -8.1726
  62   2.0000      -0.272876        -7.4253
  63   2.0000      -0.243258        -6.6194
  64   2.0000      -0.236680        -6.4404
  65   2.0000      -0.235947        -6.4204
  66   2.0000      -0.232571        -6.3286
  67   2.0000      -0.212215        -5.7747
  68   2.0000      -0.199173        -5.4198
  69   2.0000      -0.181620        -4.9421
  70   0.0000      -0.119539        -3.2528
  71   0.0000      -0.072993        -1.9862
  72   0.0000      -0.044814        -1.2194
  73   0.0000      -0.025088        -0.6827
  74   0.0000       0.013427         0.3654

MULLIKEN ATOMIC CHARGES
-----------------------
   0 C :   -0.021580
   1 C :   -0.017297
   2 C :   -0.134726
   3 C :    0.052202
   4 C :    0.037837
   5 C :   -0.126688
   6 C :    0.083620
   7 O :   -0.154387
   8 C :    0.017949
   9 C :   -0.138451
  10 C :   -0.015179
  11 C :   -0.135814
  12 C :    0.076855
  13 C :    0.047064
  14 C :    0.070780
  15 O :   -0.225552
  16 N :   -0.233849
  17 C :   -0.074891
  18 C :    0.007330
  19 O :   -0.429041
  20 H :    0.060602
  21 H :    0.060007
  22 H :    0.056389
  23 H :    0.056775
  24 H :    0.052583
  25 H :    0.056138
  26 H :    0.046228
  27 H :    0.243415
  28 H :    0.103297
  29 H :    0.114726
  30 H :    0.079946
  31 H :    0.076932
  32 H :    0.306781
Sum of atomic charges:   -0.0000000

LOEWDIN ATOMIC CHARGES
----------------------
   0 C :   -0.109348
   1 C :   -0.106886
   2 C :   -0.090034
   3 C :   -0.044339
   4 C :   -0.052970
   5 C :   -0.084163
   6 C :    0.057379
   7 O :   -0.135376
   8 C :   -0.048209
   9 C :   -0.110520
  10 C :   -0.100196
  11 C :   -0.134532
  12 C :    0.037002
  13 C :   -0.093212
  14 C :    0.055711
  15 O :   -0.183603
  16 N :   -0.126950
  17 C :   -0.166166
  18 C :   -0.129612
  19 O :   -0.338877
  20 H :    0.127802
  21 H :    0.127531
  22 H :    0.133921
  23 H :    0.135205
  24 H :    0.133550
  25 H :    0.128409
  26 H :    0.129471
  27 H :    0.241279
  28 H :    0.129249
  29 H :    0.127256
  30 H :    0.101742
  31 H :    0.098853
  32 H :    0.290634

  Mayer bond orders larger than 0.100000
B(  0-C ,  1-C ) :   1.3266 B(  0-C ,  5-C ) :   1.3366 B(  0-C , 20-H ) :   0.9669
B(  1-C ,  2-C ) :   1.3362 B(  1-C , 21-H ) :   0.9666 B(  2-C ,  3-C ) :   1.3808
B(  2-C , 22-H ) :   0.9541 B(  3-C ,  4-C ) :   1.3361 B(  3-C , 14-C ) :   0.9802
B(  4-C ,  5-C ) :   1.3785 B(  4-C ,  6-C ) :   0.9553 B(  5-C , 23-H ) :   0.9565
B(  6-C ,  7-O ) :   2.1515 B(  6-C ,  8-C ) :   0.9539 B(  8-C ,  9-C ) :   1.4335
B(  8-C , 13-C ) :   1.2941 B(  9-C , 10-C ) :   1.2215 B(  9-C , 24-H ) :   0.9563
B( 10-C , 11-C ) :   1.3923 B( 10-C , 25-H ) :   0.9663 B( 11-C , 12-C ) :   1.2605
B( 11-C , 26-H ) :   0.9390 B( 12-C , 13-C ) :   1.2130 B( 12-C , 16-N ) :   1.3779
B( 13-C , 14-C ) :   1.0317 B( 14-C , 15-O ) :   1.9510 B( 15-O , 27-H ) :   0.1487
B( 16-N , 17-C ) :   1.0522 B( 16-N , 27-H ) :   0.7631 B( 17-C , 18-C ) :   1.1066
B( 17-C , 28-H ) :   0.9238 B( 17-C , 29-H ) :   0.9050 B( 18-C , 19-O ) :   1.0893
B( 18-C , 30-H ) :   0.9163 B( 18-C , 31-H ) :   0.9176 B( 19-O , 32-H ) :   0.8470

Dispersion correction           -0.046878112
FINAL SINGLE POINT ENERGY      -896.122831516992

DIPOLE MOMENT
-------------

Method             : SCF
Type of density    : Electron Density
Multiplicity       :   1
Irrep              :   0
Energy             :  -896.2198128856960011 Eh
Relativity type    :
Basis              : AO
                                X                 Y                 Z
Electronic contribution:    -11.269428901       3.689223726       0.354880733
Nuclear contribution   :     12.794000053      -4.685979240      -0.634419435
                        -----------------------------------------
Total Dipole Moment    :      1.524571152      -0.996755514      -0.279538702
                        -----------------------------------------
Magnitude (a.u.)       :      1.842818667
Magnitude (Debye)      :      4.684072801

Rotational constants in cm-1:             0.022754             0.007531             0.005897
Rotational constants in MHz :           682.139062           225.765051           176.789282

                             ****ORCA TERMINATED NORMALLY****
TOTAL RUN TIME: 0 days 0 hours 0 minutes 34 seconds 549 msec
