                         Program Version 6.0.0  -   RELEASE  -
|  1> ! pbe def2-sv(p) def2/J RI DEFGRID1 loosescf d4 GCP(DFT/SV(P)) printgap
|  2> %output
|  3>     printlevel normal
|  4> end
|  5> * xyz 0 1
|  6> C -1.7293569211 -1.3495781237 0.3578869767
|  7> C -2.3770841529 -0.0202818545 -0.0099386579
|  8> C -1.4357109365 0.9285282026 -0.7514203237
|  9> C -0.2752231333 1.4309457876 0.1142297732
| 10> C 0.8122062513 0.4145215043 0.3401512563
| 11> O 1.3487045923 0.2059733291 1.4109989279
| 12> O 1.1703782778 -0.2052256878 -0.7781562643
| 13> C 2.2161452147 -1.1733573814 -0.689583921
| 14> H -0.919467206 -1.2049868481 1.0703769928
| 15> H -2.4604560011 -2.0128280968 0.8139767957
| 16> H -1.3282674652 -1.8360425187 -0.528757746
| 17> H -3.2401818654 -0.2149896675 -0.6496878244
| 18> H -2.7396330602 0.4674422857 0.8974308044
| 19> H -2.009324951 1.7960334807 -1.0805769882
| 20> H -1.0327709867 0.4321906202 -1.6348485316
| 21> H -0.6303404362 1.7660101486 1.0893987812
| 22> H 0.2008979427 2.2760891044 -0.3882066121
| 23> H 1.8857138192 -2.0246231102 -0.0926321687
| 24> H 3.0964359673 -0.7325876844 -0.2199038516
| 25> H 2.4258801257 -1.4737257625 -1.7113139033
| 26> *
| 27>
| 28>                          ****END OF INPUT****

CARTESIAN COORDINATES (ANGSTROEM)
---------------------------------
  C     -1.729357   -1.349578    0.357887
  C     -2.377084   -0.020282   -0.009939
  C     -1.435711    0.928528   -0.751420
  C     -0.275223    1.430946    0.114230
  C      0.812206    0.414522    0.340151
  O      1.348705    0.205973    1.410999
  O      1.170378   -0.205226   -0.778156
  C      2.216145   -1.173357   -0.689584
  H     -0.919467   -1.204987    1.070377
  H     -2.460456   -2.012828    0.813977
  H     -1.328267   -1.836043   -0.528758
  H     -3.240182   -0.214990   -0.649688
  H     -2.739633    0.467442    0.897431
  H     -2.009325    1.796033   -1.080577
  H     -1.032771    0.432191   -1.634849
  H     -0.630340    1.766010    1.089399
  H      0.200898    2.276089   -0.388207
  H      1.885714   -2.024623   -0.092632
  H      3.096436   -0.732588   -0.219904
  H      2.425880   -1.473726   -1.711314

 Total Charge           Charge          ....    0
 Multiplicity           Mult            ....    1
 Number of Electrons    NEL             ....   64
 Basis Dimension        Dim             ....  136

ORBITAL ENERGIES
----------------

  NO   OCC          E(Eh)            E(eV)
   0   2.0000     -18.800933      -511.5994
   1   2.0000     -18.729712      -509.6614
   2   2.0000     -10.005098      -272.2526
   3   2.0000      -9.942690      -270.5544
   4   2.0000      -9.897834      -269.3338
   5   2.0000      -9.889818      -269.1156
   6   2.0000      -9.885851      -269.0077
   7   2.0000      -9.873800      -268.6798
   8   2.0000      -1.006657       -27.3925
   9   2.0000      -0.906611       -24.6702
  10   2.0000      -0.733435       -19.9578
  11   2.0000      -0.682354       -18.5678
  12   2.0000      -0.644498       -17.5377
  13   2.0000      -0.587366       -15.9830
  14   2.0000      -0.517510       -14.0822
  15   2.0000      -0.507428       -13.8078
  16   2.0000      -0.451623       -12.2893
  17   2.0000      -0.443903       -12.0792
  18   2.0000      -0.412807       -11.2330
  19   2.0000      -0.408600       -11.1186
  20   2.0000      -0.390798       -10.6342
  21   2.0000      -0.374825       -10.1995
  22   2.0000      -0.360553        -9.8111
  23   2.0000      -0.355882        -9.6840
  24   2.0000      -0.336723        -9.1627
  25   2.0000      -0.324839        -8.8393
  26   2.0000      -0.307172        -8.3586
  27   2.0000      -0.295410        -8.0385
  28   2.0000      -0.286561        -7.7977
  29   2.0000      -0.281114        -7.6495
  30   2.0000      -0.257721        -7.0129
  31   2.0000      -0.213154        -5.8002
  32   0.0000      -0.019674        -0.5354
  33   0.0000       0.035189         0.9575
  34   0.0000       0.052063         1.4167
  35   0.0000       0.074392         2.0243
  36   0.0000       0.077345         2.1047

MULLIKEN ATOMIC CHARGES
-----------------------
   0 C :   -0.300222
   1 C :   -0.176448
   2 C :   -0.179788
   3 C :   -0.117998
   4 C :    0.072844
   5 O :   -0.209172
   6 O :   -0.242473
   7 C :   -0.108353
   8 H :    0.132889
   9 H :    0.103792
  10 H :    0.094633
  11 H :    0.087336
  12 H :    0.084260
  13 H :    0.085527
  14 H :    0.100562
  15 H :    0.098261
  16 H :    0.114139
  17 H :    0.119440
  18 H :    0.120783
  19 H :    0.119986
Sum of atomic charges:   -0.0000000

LOEWDIN ATOMIC CHARGES
----------------------
   0 C :   -0.350487
   1 C :   -0.232045
   2 C :   -0.227430
   3 C :   -0.241121
   4 C :    0.029267
   5 O :   -0.172084
   6 O :   -0.072263
   7 C :   -0.202981
   8 H :    0.123502
   9 H :    0.120647
  10 H :    0.116784
  11 H :    0.116524
  12 H :    0.115251
  13 H :    0.118637
  14 H :    0.120095
  15 H :    0.133850
  16 H :    0.144472
  17 H :    0.119341
  18 H :    0.120192
  19 H :    0.119849

  Mayer bond orders larger than 0.100000
B(  0-C ,  1-C ) :   1.1774 B(  0-C ,  8-H ) :   0.9276 B(  0-C ,  9-H ) :   0.9471
B(  0-C , 10-H ) :   0.9506 B(  1-C ,  2-C ) :   1.1243 B(  1-C , 11-H ) :   0.9247
B(  1-C , 12-H ) :   0.9232 B(  2-C ,  3-C ) :   1.1052 B(  2-C , 13-H ) :   0.9181
B(  2-C , 14-H ) :   0.9167 B(  3-C ,  4-C ) :   1.0541 B(  3-C , 15-H ) :   0.9081
B(  3-C , 16-H ) :   0.8870 B(  4-C ,  5-O ) :   2.0430 B(  4-C ,  6-O ) :   1.1911
B(  6-O ,  7-C ) :   0.9414 B(  7-C , 17-H ) :   0.9531 B(  7-C , 18-H ) :   0.9490
B(  7-C , 19-H ) :   0.9586

Dispersion correction           -0.016391608
FINAL SINGLE POINT ENERGY      -385.450933092778

DIPOLE MOMENT
-------------

Method             : SCF
Type of density    : Electron Density
Multiplicity       :   1
Irrep              :   0
Energy             :  -385.5262678574737834 Eh
Relativity type    :
Basis              : AO
                                X                 Y                 Z
Electronic contribution:      6.173710298       2.474867725       1.527204346
Nuclear contribution   :     -6.296692330      -2.591222269      -2.274812081
                        -----------------------------------------
Total Dipole Moment    :     -0.122982032      -0.116354544      -0.747607735
                        -----------------------------------------
Magnitude (a.u.)       :      0.766537857
Magnitude (Debye)      :      1.948384391

Rotational constants in cm-1:             0.099087             0.045594             0.041632
Rotational constants in MHz :          2970.550315          1366.884959          1248.100852

                             ****ORCA TERMINATED NORMALLY****
TOTAL RUN TIME: 0 days 0 hours 0 minutes 11 seconds 81 msec
