                         Program Version 6.0.0  -   RELEASE  -
|  1> ! pbe def2-sv(p) def2/J RI DEFGRID1 loosescf d4 GCP(DFT/SV(P)) printgap
|  2> %output
|  3>     printlevel normal
|  4> end
|  5> * xyz 0 1
|  6> C -3.3664189137 -0.5557886118 -0.4007046729
|  7> C -2.6150005946 -0.0517026143 0.8265780155
|  8> C -1.1044675676 -0.2760633288 0.7419321113
|  9> C -0.4506024631 0.5759577178 -0.3426698355
| 10> C 1.0493298388 0.4606347042 -0.4070764324
| 11> O 1.7496579951 1.189407256 -1.0837994133
| 12> O 1.5268510341 -0.5203187103 0.3443440973
| 13> C 2.9382110883 -0.751750882 0.3657146187
| 14> H -4.4385597798 -0.458134493 -0.2496035331
| 15> H -3.099049754 0.0130755379 -1.287124384
| 16> H -3.1401967631 -1.6042197906 -0.5804666973
| 17> H -2.8155356335 1.0126436418 0.9642005819
| 18> H -2.9895544565 -0.5754550101 1.7080271796
| 19> H -0.9030167769 -1.3299676853 0.5455883933
| 20> H -0.653685698 -0.0283350125 1.70438008
| 21> H -0.6873898676 1.6332197662 -0.2038901902
| 22> H -0.8225816262 0.2946275198 -1.3304644693
| 23> H 3.4644371345 0.1210903122 -0.0225063732
| 24> H 3.1574238881 -1.6224565451 -0.251333243
| 25> H 3.2087324659 -0.9424194809 1.4011827494
| 26> *
| 27>
| 28>                          ****END OF INPUT****

CARTESIAN COORDINATES (ANGSTROEM)
---------------------------------
  C     -3.366419   -0.555789   -0.400705
  C     -2.615001   -0.051703    0.826578
  C     -1.104468   -0.276063    0.741932
  C     -0.450602    0.575958   -0.342670
  C      1.049330    0.460635   -0.407076
  O      1.749658    1.189407   -1.083799
  O      1.526851   -0.520319    0.344344
  C      2.938211   -0.751751    0.365715
  H     -4.438560   -0.458134   -0.249604
  H     -3.099050    0.013076   -1.287124
  H     -3.140197   -1.604220   -0.580467
  H     -2.815536    1.012644    0.964201
  H     -2.989554   -0.575455    1.708027
  H     -0.903017   -1.329968    0.545588
  H     -0.653686   -0.028335    1.704380
  H     -0.687390    1.633220   -0.203890
  H     -0.822582    0.294628   -1.330464
  H      3.464437    0.121090   -0.022506
  H      3.157424   -1.622457   -0.251333
  H      3.208732   -0.942419    1.401183

 Total Charge           Charge          ....    0
 Multiplicity           Mult            ....    1
 Number of Electrons    NEL             ....   64
 Basis Dimension        Dim             ....  136

ORBITAL ENERGIES
----------------

  NO   OCC          E(Eh)            E(eV)
   0   2.0000     -18.800025      -511.5747
   1   2.0000     -18.728018      -509.6153
   2   2.0000     -10.003166      -272.2000
   3   2.0000      -9.939352      -270.4635
   4   2.0000      -9.896571      -269.2994
   5   2.0000      -9.886617      -269.0285
   6   2.0000      -9.886428      -269.0234
   7   2.0000      -9.876679      -268.7581
   8   2.0000      -1.004797       -27.3419
   9   2.0000      -0.905123       -24.6296
  10   2.0000      -0.732295       -19.9267
  11   2.0000      -0.684598       -18.6289
  12   2.0000      -0.642384       -17.4802
  13   2.0000      -0.587777       -15.9942
  14   2.0000      -0.514890       -14.0109
  15   2.0000      -0.508054       -13.8249
  16   2.0000      -0.451180       -12.2772
  17   2.0000      -0.444203       -12.0874
  18   2.0000      -0.415130       -11.2963
  19   2.0000      -0.409110       -11.1324
  20   2.0000      -0.387452       -10.5431
  21   2.0000      -0.379839       -10.3359
  22   2.0000      -0.359813        -9.7910
  23   2.0000      -0.353882        -9.6296
  24   2.0000      -0.336100        -9.1457
  25   2.0000      -0.319156        -8.6847
  26   2.0000      -0.300610        -8.1800
  27   2.0000      -0.296139        -8.0584
  28   2.0000      -0.290026        -7.8920
  29   2.0000      -0.285548        -7.7702
  30   2.0000      -0.252922        -6.8824
  31   2.0000      -0.213994        -5.8231
  32   0.0000      -0.016165        -0.4399
  33   0.0000       0.033187         0.9031
  34   0.0000       0.057232         1.5574
  35   0.0000       0.066629         1.8131
  36   0.0000       0.069603         1.8940

MULLIKEN ATOMIC CHARGES
-----------------------
   0 C :   -0.298242
   1 C :   -0.155705
   2 C :   -0.157308
   3 C :   -0.210633
   4 C :    0.127958
   5 O :   -0.209393
   6 O :   -0.238216
   7 C :   -0.128450
   8 H :    0.105211
   9 H :    0.109358
  10 H :    0.099156
  11 H :    0.081978
  12 H :    0.085899
  13 H :    0.087235
  14 H :    0.087943
  15 H :    0.112089
  16 H :    0.123886
  17 H :    0.133549
  18 H :    0.121514
  19 H :    0.122171
Sum of atomic charges:   -0.0000000

LOEWDIN ATOMIC CHARGES
----------------------
   0 C :   -0.343809
   1 C :   -0.233556
   2 C :   -0.229583
   3 C :   -0.248190
   4 C :    0.035169
   5 O :   -0.177472
   6 O :   -0.066217
   7 C :   -0.207911
   8 H :    0.120990
   9 H :    0.116504
  10 H :    0.117444
  11 H :    0.113991
  12 H :    0.116790
  13 H :    0.117563
  14 H :    0.118080
  15 H :    0.140929
  16 H :    0.143798
  17 H :    0.124640
  18 H :    0.120091
  19 H :    0.120751

  Mayer bond orders larger than 0.100000
B(  0-C ,  1-C ) :   1.1488 B(  0-C ,  8-H ) :   0.9516 B(  0-C ,  9-H ) :   0.9518
B(  0-C , 10-H ) :   0.9550 B(  1-C ,  2-C ) :   1.1182 B(  1-C , 11-H ) :   0.9246
B(  1-C , 12-H ) :   0.9276 B(  2-C ,  3-C ) :   1.1227 B(  2-C , 13-H ) :   0.9168
B(  2-C , 14-H ) :   0.9259 B(  3-C ,  4-C ) :   1.0241 B(  3-C , 15-H ) :   0.9036
B(  3-C , 16-H ) :   0.8897 B(  4-C ,  5-O ) :   2.0667 B(  4-C ,  6-O ) :   1.2225
B(  6-O ,  7-C ) :   0.9354 B(  7-C , 17-H ) :   0.9307 B(  7-C , 18-H ) :   0.9603
B(  7-C , 19-H ) :   0.9609

Dispersion correction           -0.014916033
FINAL SINGLE POINT ENERGY      -385.449762712658

DIPOLE MOMENT
-------------

Method             : SCF
Type of density    : Electron Density
Multiplicity       :   1
Irrep              :   0
Energy             :  -385.5251503770345494 Eh
Relativity type    :
Basis              : AO
                                X                 Y                 Z
Electronic contribution:      8.922757156       2.667393104      -1.746815070
Nuclear contribution   :     -9.069435821      -3.260838514       2.238749683
                        -----------------------------------------
Total Dipole Moment    :     -0.146678664      -0.593445410       0.491934613
                        -----------------------------------------
Magnitude (a.u.)       :      0.784660276
Magnitude (Debye)      :      1.994447920

Rotational constants in cm-1:             0.153766             0.030307             0.027211
Rotational constants in MHz :          4609.796544           908.585518           815.777996

                             ****ORCA TERMINATED NORMALLY****
TOTAL RUN TIME: 0 days 0 hours 0 minutes 9 seconds 532 msec
