                         Program Version 6.0.0  -   RELEASE  -
|  1> ! pbe def2-sv(p) def2/J RI DEFGRID1 loosescf d4 GCP(DFT/SV(P)) printgap
|  2> %output
|  3>     printlevel normal
|  4> end
|  5> * xyz 0 1
|  6> C 2.5392833058 -0.3600145513 -0.0161277266
|  7> C 1.2863731549 0.5077215821 -0.0288771956
|  8> C 0.0146050412 -0.3348373075 0.0179248236
|  9> C -1.2459604399 0.5269724554 0.0109635123
| 10> N -2.4349410846 -0.3151235351 -0.0362503657
| 11> H 2.5744548 -0.9652247178 0.8868503923
| 12> H 2.5474446663 -1.0264829798 -0.8752548839
| 13> H 3.4324631889 0.2586894782 -0.0509023832
| 14> H 1.3031651185 1.1837589673 0.829439251
| 15> H 1.2777799244 1.1211053337 -0.9323710563
| 16> H -0.0189703766 -1.0041595418 -0.8427414487
| 17> H 0.0203025512 -0.9524339502 0.9194901687
| 18> H -1.2527634394 1.1542427163 -0.885404813
| 19> H -1.2274558652 1.1985663484 0.8878370882
| 20> H -3.2670546672 0.2637375729 -0.0318263406
| 21> H -2.4671124702 -0.9024050308 0.7907113058
| 22> *
| 23>
| 24>                          ****END OF INPUT****

CARTESIAN COORDINATES (ANGSTROEM)
---------------------------------
  C      2.539283   -0.360015   -0.016128
  C      1.286373    0.507722   -0.028877
  C      0.014605   -0.334837    0.017925
  C     -1.245960    0.526972    0.010964
  N     -2.434941   -0.315124   -0.036250
  H      2.574455   -0.965225    0.886850
  H      2.547445   -1.026483   -0.875255
  H      3.432463    0.258689   -0.050902
  H      1.303165    1.183759    0.829439
  H      1.277780    1.121105   -0.932371
  H     -0.018970   -1.004160   -0.842741
  H      0.020303   -0.952434    0.919490
  H     -1.252763    1.154243   -0.885405
  H     -1.227456    1.198566    0.887837
  H     -3.267055    0.263738   -0.031826
  H     -2.467112   -0.902405    0.790711

 Total Charge           Charge          ....    0
 Multiplicity           Mult            ....    1
 Number of Electrons    NEL             ....   42
 Basis Dimension        Dim             ....   92

ORBITAL ENERGIES
----------------

  NO   OCC          E(Eh)            E(eV)
   0   2.0000     -13.952444      -379.6653
   1   2.0000      -9.901759      -269.4406
   2   2.0000      -9.880854      -268.8717
   3   2.0000      -9.876368      -268.7496
   4   2.0000      -9.869980      -268.5758
   5   2.0000      -0.789104       -21.4726
   6   2.0000      -0.705656       -19.2019
   7   2.0000      -0.628703       -17.1079
   8   2.0000      -0.543769       -14.7967
   9   2.0000      -0.513127       -13.9629
  10   2.0000      -0.435833       -11.8596
  11   2.0000      -0.418947       -11.4001
  12   2.0000      -0.392094       -10.6694
  13   2.0000      -0.369858       -10.0643
  14   2.0000      -0.361162        -9.8277
  15   2.0000      -0.328866        -8.9489
  16   2.0000      -0.308160        -8.3855
  17   2.0000      -0.289418        -7.8755
  18   2.0000      -0.282852        -7.6968
  19   2.0000      -0.281726        -7.6662
  20   2.0000      -0.177594        -4.8326
  21   0.0000       0.036345         0.9890
  22   0.0000       0.047782         1.3002
  23   0.0000       0.068169         1.8550
  24   0.0000       0.078287         2.1303
  25   0.0000       0.089580         2.4376

MULLIKEN ATOMIC CHARGES
-----------------------
   0 C :   -0.255794
   1 C :   -0.191665
   2 C :   -0.194979
   3 C :   -0.062199
   4 N :   -0.452098
   5 H :    0.095630
   6 H :    0.097982
   7 H :    0.100205
   8 H :    0.082057
   9 H :    0.085015
  10 H :    0.089212
  11 H :    0.073575
  12 H :    0.075561
  13 H :    0.059559
  14 H :    0.199757
  15 H :    0.198183
Sum of atomic charges:   -0.0000000

LOEWDIN ATOMIC CHARGES
----------------------
   0 C :   -0.339318
   1 C :   -0.233668
   2 C :   -0.235083
   3 C :   -0.175542
   4 N :   -0.419070
   5 H :    0.116020
   6 H :    0.117299
   7 H :    0.117670
   8 H :    0.112317
   9 H :    0.114365
  10 H :    0.118701
  11 H :    0.109422
  12 H :    0.109036
  13 H :    0.086027
  14 H :    0.202326
  15 H :    0.199497

  Mayer bond orders larger than 0.100000
B(  0-C ,  1-C ) :   1.1582 B(  0-C ,  5-H ) :   0.9549 B(  0-C ,  6-H ) :   0.9548
B(  0-C ,  7-H ) :   0.9534 B(  1-C ,  2-C ) :   1.1293 B(  1-C ,  8-H ) :   0.9250
B(  1-C ,  9-H ) :   0.9265 B(  2-C ,  3-C ) :   1.1382 B(  2-C , 10-H ) :   0.9183
B(  2-C , 11-H ) :   0.9236 B(  3-C ,  4-N ) :   1.1132 B(  3-C , 12-H ) :   0.9241
B(  3-C , 13-H ) :   0.9184 B(  4-N , 14-H ) :   0.9048 B(  4-N , 15-H ) :   0.9038

Dispersion correction           -0.009755677
FINAL SINGLE POINT ENERGY      -213.245176791929

DIPOLE MOMENT
-------------

Method             : SCF
Type of density    : Electron Density
Multiplicity       :   1
Irrep              :   0
Energy             :  -213.3055392810229591 Eh
Relativity type    :
Basis              : AO
                                X                 Y                 Z
Electronic contribution:     -2.832966074      -0.046890921      -0.222194799
Nuclear contribution   :      2.728242746       0.307303287       0.652600838
                        -----------------------------------------
Total Dipole Moment    :     -0.104723328       0.260412366       0.430406039
                        -----------------------------------------
Magnitude (a.u.)       :      0.513839405
Magnitude (Debye)      :      1.306075971

Rotational constants in cm-1:             0.602348             0.066256             0.062759
Rotational constants in MHz :         18057.925392          1986.292386          1881.478758

                             ****ORCA TERMINATED NORMALLY****
TOTAL RUN TIME: 0 days 0 hours 0 minutes 7 seconds 393 msec
