                         Program Version 6.0.0  -   RELEASE  -
|  1> ! pbe def2-sv(p) def2/J RI DEFGRID1 loosescf d4 GCP(DFT/SV(P)) printgap
|  2> %output
|  3>     printlevel normal
|  4> end
|  5> * xyz 0 1
|  6> C 2.4643843349 -0.5714779942 -0.8449569972
|  7> C 2.3676117737 0.1617352086 0.4879704968
|  8> C 0.939022769 0.3116913796 1.014969901
|  9> C 0.0335418866 1.1837425661 0.1345628102
| 10> C -0.8282255637 0.3911655319 -0.833297049
| 11> Cl -2.0587425513 -0.5843824321 0.0526152216
| 12> H 2.0143272694 0.010090438 -1.6449839823
| 13> H 1.9648433735 -1.5361036959 -0.7860884682
| 14> H 3.5074217583 -0.7442178899 -1.1004893877
| 15> H 2.9468119288 -0.3875849743 1.2337280479
| 16> H 2.8174229063 1.1520107692 0.3882136481
| 17> H 0.9969466813 0.7563770325 2.0100178518
| 18> H 0.4875834324 -0.6755774039 1.1291819258
| 19> H 0.6447144198 1.8711604923 -0.4530442074
| 20> H -0.6243940359 1.7834970294 0.7653093125
| 21> H -1.391899038 1.0486428841 -1.4926729008
| 22> H -0.2495435767 -0.3220642647 -1.4142964893
| 23> *
| 24>
| 25>                          ****END OF INPUT****

CARTESIAN COORDINATES (ANGSTROEM)
---------------------------------
  C      2.464384   -0.571478   -0.844957
  C      2.367612    0.161735    0.487970
  C      0.939023    0.311691    1.014970
  C      0.033542    1.183743    0.134563
  C     -0.828226    0.391166   -0.833297
  Cl    -2.058743   -0.584382    0.052615
  H      2.014327    0.010090   -1.644984
  H      1.964843   -1.536104   -0.786088
  H      3.507422   -0.744218   -1.100489
  H      2.946812   -0.387585    1.233728
  H      2.817423    1.152011    0.388214
  H      0.996947    0.756377    2.010018
  H      0.487583   -0.675577    1.129182
  H      0.644714    1.871160   -0.453044
  H     -0.624394    1.783497    0.765309
  H     -1.391899    1.048643   -1.492673
  H     -0.249544   -0.322064   -1.414296

 Total Charge           Charge          ....    0
 Multiplicity           Mult            ....    1
 Number of Electrons    NEL             ....   58
 Basis Dimension        Dim             ....  110

ORBITAL ENERGIES
----------------

  NO   OCC          E(Eh)            E(eV)
   0   2.0000    -100.615409     -2737.8845
   1   2.0000      -9.938176      -270.4315
   2   2.0000      -9.895093      -269.2592
   3   2.0000      -9.886051      -269.0131
   4   2.0000      -9.883437      -268.9420
   5   2.0000      -9.877370      -268.7769
   6   2.0000      -9.150993      -249.0112
   7   2.0000      -6.982511      -190.0038
   8   2.0000      -6.970753      -189.6838
   9   2.0000      -6.970594      -189.6795
  10   2.0000      -0.774880       -21.0856
  11   2.0000      -0.719135       -19.5687
  12   2.0000      -0.663557       -18.0563
  13   2.0000      -0.606976       -16.5167
  14   2.0000      -0.543612       -14.7924
  15   2.0000      -0.506533       -13.7835
  16   2.0000      -0.434220       -11.8157
  17   2.0000      -0.417910       -11.3719
  18   2.0000      -0.401359       -10.9215
  19   2.0000      -0.382020       -10.3953
  20   2.0000      -0.363345        -9.8871
  21   2.0000      -0.344582        -9.3766
  22   2.0000      -0.335970        -9.1422
  23   2.0000      -0.321047        -8.7361
  24   2.0000      -0.289991        -7.8911
  25   2.0000      -0.287337        -7.8188
  26   2.0000      -0.280509        -7.6330
  27   2.0000      -0.244069        -6.6415
  28   2.0000      -0.241318        -6.5666
  29   0.0000       0.010933         0.2975
  30   0.0000       0.034466         0.9379
  31   0.0000       0.060122         1.6360
  32   0.0000       0.062031         1.6880
  33   0.0000       0.073325         1.9953

MULLIKEN ATOMIC CHARGES
-----------------------
   0 C :   -0.295894
   1 C :   -0.191974
   2 C :   -0.162564
   3 C :   -0.149115
   4 C :   -0.188409
   5 Cl:   -0.156769
   6 H :    0.106303
   7 H :    0.106339
   8 H :    0.105462
   9 H :    0.088708
  10 H :    0.086014
  11 H :    0.086367
  12 H :    0.094102
  13 H :    0.095710
  14 H :    0.098659
  15 H :    0.135136
  16 H :    0.141926
Sum of atomic charges:   -0.0000000

LOEWDIN ATOMIC CHARGES
----------------------
   0 C :   -0.346055
   1 C :   -0.233217
   2 C :   -0.233517
   3 C :   -0.248354
   4 C :   -0.270187
   5 Cl:    0.018934
   6 H :    0.113613
   7 H :    0.118678
   8 H :    0.121294
   9 H :    0.116871
  10 H :    0.112915
  11 H :    0.120021
  12 H :    0.113589
  13 H :    0.123581
  14 H :    0.123804
  15 H :    0.124632
  16 H :    0.123399

  Mayer bond orders larger than 0.100000
B(  0-C ,  1-C ) :   1.1569 B(  0-C ,  6-H ) :   0.9452 B(  0-C ,  7-H ) :   0.9505
B(  0-C ,  8-H ) :   0.9490 B(  1-C ,  2-C ) :   1.1365 B(  1-C ,  9-H ) :   0.9267
B(  1-C , 10-H ) :   0.9255 B(  2-C ,  3-C ) :   1.0870 B(  2-C , 11-H ) :   0.9244
B(  2-C , 12-H ) :   0.9219 B(  3-C ,  4-C ) :   1.1080 B(  3-C , 13-H ) :   0.9101
B(  3-C , 14-H ) :   0.9200 B(  4-C ,  5-Cl) :   1.0246 B(  4-C , 15-H ) :   0.9279
B(  4-C , 16-H ) :   0.9183

Dispersion correction           -0.013640468
FINAL SINGLE POINT ENERGY      -656.509347284351

DIPOLE MOMENT
-------------

Method             : SCF
Type of density    : Electron Density
Multiplicity       :   1
Irrep              :   0
Energy             :  -656.5668298883041416 Eh
Relativity type    :
Basis              : AO
                                X                 Y                 Z
Electronic contribution:    -14.516506167      -3.161490077       1.091748699
Nuclear contribution   :     15.066615241       3.557803213      -1.351336796
                        -----------------------------------------
Total Dipole Moment    :      0.550109074       0.396313135      -0.259588098
                        -----------------------------------------
Magnitude (a.u.)       :      0.725995919
Magnitude (Debye)      :      1.845334976

Rotational constants in cm-1:             0.174906             0.043011             0.041085
Rotational constants in MHz :          5243.545175          1289.429610          1231.693898

                             ****ORCA TERMINATED NORMALLY****
TOTAL RUN TIME: 0 days 0 hours 0 minutes 7 seconds 241 msec
