                         Program Version 6.0.0  -   RELEASE  -
|  1> ! pbe def2-sv(p) def2/J RI DEFGRID1 loosescf d4 GCP(DFT/SV(P)) printgap
|  2> %output
|  3>     printlevel normal
|  4> end
|  5> * xyz 0 1
|  6> C -3.3696627121 -0.8216869896 0.1548956974
|  7> C -1.9627095971 -0.5375922913 -0.35705279
|  8> C -1.5053363285 0.8728123635 0.0095260667
|  9> C -0.106183502 1.1769255803 -0.5291845952
| 10> C 0.9448675121 0.3519564023 0.1668296821
| 11> O 1.0000726862 0.1482986701 1.3611895725
| 12> O 1.8399001407 -0.1240526266 -0.69353671
| 13> C 2.9221609436 -0.9008997353 -0.1729063053
| 14> H -3.4043991422 -0.7302020793 1.2379720017
| 15> H -4.0783240884 -0.1163592775 -0.2724539137
| 16> H -3.6785085888 -1.8281026801 -0.1154442017
| 17> H -1.2657857445 -1.262247528 0.0719669356
| 18> H -1.9397925624 -0.6553051831 -1.442627856
| 19> H -1.4920665537 0.9777983311 1.0962495836
| 20> H -2.2091376451 1.5996254967 -0.3975418741
| 21> H 0.1362505991 2.2249277844 -0.340821659
| 22> H -0.0414526574 0.9888903608 -1.6004100813
| 23> H 2.5693655091 -1.9017033734 0.0779364611
| 24> H 3.3234574254 -0.428159887 0.7242823018
| 25> H 3.6652217679 -0.9404614726 -0.9632385258
| 26> *
| 27>
| 28>                          ****END OF INPUT****

CARTESIAN COORDINATES (ANGSTROEM)
---------------------------------
  C     -3.369663   -0.821687    0.154896
  C     -1.962710   -0.537592   -0.357053
  C     -1.505336    0.872812    0.009526
  C     -0.106184    1.176926   -0.529185
  C      0.944868    0.351956    0.166830
  O      1.000073    0.148299    1.361190
  O      1.839900   -0.124053   -0.693537
  C      2.922161   -0.900900   -0.172906
  H     -3.404399   -0.730202    1.237972
  H     -4.078324   -0.116359   -0.272454
  H     -3.678509   -1.828103   -0.115444
  H     -1.265786   -1.262248    0.071967
  H     -1.939793   -0.655305   -1.442628
  H     -1.492067    0.977798    1.096250
  H     -2.209138    1.599625   -0.397542
  H      0.136251    2.224928   -0.340822
  H     -0.041453    0.988890   -1.600410
  H      2.569366   -1.901703    0.077936
  H      3.323457   -0.428160    0.724282
  H      3.665222   -0.940461   -0.963239

 Total Charge           Charge          ....    0
 Multiplicity           Mult            ....    1
 Number of Electrons    NEL             ....   64
 Basis Dimension        Dim             ....  136

ORBITAL ENERGIES
----------------

  NO   OCC          E(Eh)            E(eV)
   0   2.0000     -18.799559      -511.5620
   1   2.0000     -18.732219      -509.7296
   2   2.0000     -10.004784      -272.2440
   3   2.0000      -9.941410      -270.5195
   4   2.0000      -9.896921      -269.3089
   5   2.0000      -9.887244      -269.0456
   6   2.0000      -9.883884      -268.9542
   7   2.0000      -9.873680      -268.6765
   8   2.0000      -1.004926       -27.3454
   9   2.0000      -0.908991       -24.7349
  10   2.0000      -0.729873       -19.8608
  11   2.0000      -0.684726       -18.6323
  12   2.0000      -0.646729       -17.5984
  13   2.0000      -0.576090       -15.6762
  14   2.0000      -0.524825       -14.2812
  15   2.0000      -0.498723       -13.5709
  16   2.0000      -0.451825       -12.2948
  17   2.0000      -0.437588       -11.9074
  18   2.0000      -0.421489       -11.4693
  19   2.0000      -0.402495       -10.9525
  20   2.0000      -0.394729       -10.7411
  21   2.0000      -0.379539       -10.3278
  22   2.0000      -0.369108       -10.0439
  23   2.0000      -0.338788        -9.2189
  24   2.0000      -0.335220        -9.1218
  25   2.0000      -0.320379        -8.7180
  26   2.0000      -0.302877        -8.2417
  27   2.0000      -0.293842        -7.9958
  28   2.0000      -0.287261        -7.8168
  29   2.0000      -0.282937        -7.6991
  30   2.0000      -0.257908        -7.0180
  31   2.0000      -0.218808        -5.9541
  32   0.0000      -0.019848        -0.5401
  33   0.0000       0.040270         1.0958
  34   0.0000       0.056113         1.5269
  35   0.0000       0.063323         1.7231
  36   0.0000       0.075969         2.0672

MULLIKEN ATOMIC CHARGES
-----------------------
   0 C :   -0.257275
   1 C :   -0.211602
   2 C :   -0.183726
   3 C :   -0.108466
   4 C :    0.084341
   5 O :   -0.211472
   6 O :   -0.236991
   7 C :   -0.114404
   8 H :    0.101844
   9 H :    0.096122
  10 H :    0.102256
  11 H :    0.101207
  12 H :    0.082730
  13 H :    0.102031
  14 H :    0.083257
  15 H :    0.114190
  16 H :    0.092905
  17 H :    0.118646
  18 H :    0.122889
  19 H :    0.121518
Sum of atomic charges:    0.0000000

LOEWDIN ATOMIC CHARGES
----------------------
   0 C :   -0.338717
   1 C :   -0.236474
   2 C :   -0.222329
   3 C :   -0.246746
   4 C :    0.034874
   5 O :   -0.171183
   6 O :   -0.073991
   7 C :   -0.204817
   8 H :    0.119503
   9 H :    0.116158
  10 H :    0.118981
  11 H :    0.117780
  12 H :    0.113251
  13 H :    0.124133
  14 H :    0.116458
  15 H :    0.144302
  16 H :    0.128314
  17 H :    0.119178
  18 H :    0.120806
  19 H :    0.120520

  Mayer bond orders larger than 0.100000
B(  0-C ,  1-C ) :   1.1588 B(  0-C ,  8-H ) :   0.9545 B(  0-C ,  9-H ) :   0.9548
B(  0-C , 10-H ) :   0.9533 B(  1-C ,  2-C ) :   1.1344 B(  1-C , 11-H ) :   0.9206
B(  1-C , 12-H ) :   0.9259 B(  2-C ,  3-C ) :   1.1139 B(  2-C , 13-H ) :   0.9119
B(  2-C , 14-H ) :   0.9217 B(  3-C ,  4-C ) :   1.0185 B(  3-C , 15-H ) :   0.8878
B(  3-C , 16-H ) :   0.9079 B(  4-C ,  5-O ) :   2.0473 B(  4-C ,  6-O ) :   1.2225
B(  6-O ,  7-C ) :   0.9393 B(  7-C , 17-H ) :   0.9572 B(  7-C , 18-H ) :   0.9445
B(  7-C , 19-H ) :   0.9601

Dispersion correction           -0.015026788
FINAL SINGLE POINT ENERGY      -385.453766150510

DIPOLE MOMENT
-------------

Method             : SCF
Type of density    : Electron Density
Multiplicity       :   1
Irrep              :   0
Energy             :  -385.5287930569616037 Eh
Relativity type    :
Basis              : AO
                                X                 Y                 Z
Electronic contribution:      8.068647590       1.867825526       1.177147899
Nuclear contribution   :     -7.852722245      -1.942864698      -1.795255399
                        -----------------------------------------
Total Dipole Moment    :      0.215925345      -0.075039172      -0.618107500
                        -----------------------------------------
Magnitude (a.u.)       :      0.659023151
Magnitude (Debye)      :      1.675103727

Rotational constants in cm-1:             0.138320             0.031691             0.030712
Rotational constants in MHz :          4146.741320           950.080306           920.718450

                             ****ORCA TERMINATED NORMALLY****
TOTAL RUN TIME: 0 days 0 hours 0 minutes 10 seconds 608 msec
