                         Program Version 6.0.0  -   RELEASE  -
|  1> ! r2scan-3c def2/J RI DEFGRID2 scfconv6 printgap
|  2> %output
|  3>     printlevel normal
|  4> end
|  5> * xyz 0 1
|  6> C -2.420933056 -0.8687511787 1.0000362975
|  7> C -2.0510552697 -0.7520036402 -0.4736185413
|  8> C -1.42675934 0.6111669901 -0.7952591311
|  9> C -0.116224805 0.8003829128 -0.0759223775
| 10> O 0.1213537081 1.6925146411 0.7141184671
| 11> O 0.7710666925 -0.1260012225 -0.4069317235
| 12> C 2.0653552357 -0.0641446082 0.21340236
| 13> C 2.882268651 -1.2439274215 -0.2763200209
| 14> H -3.1410258806 -0.1015306789 1.2748728422
| 15> H -2.8566526032 -1.8425636331 1.2067479498
| 16> H -1.5407823466 -0.7439565508 1.6284075131
| 17> H -2.9462347165 -0.8757434107 -1.083821923
| 18> H -1.3425548999 -1.5367895154 -0.7411267431
| 19> H -2.094054867 1.4207083201 -0.4995800662
| 20> H -1.2298485524 0.6757290587 -1.8660948607
| 21> H 2.5300970626 0.8909846056 -0.05302713
| 22> H 1.93099822 -0.0837394327 1.3001544335
| 23> H 2.397118966 -2.1748501659 0.0015271402
| 24> H 2.9763005437 -1.2066537395 -1.3575018408
| 25> H 3.869801972 -1.2072495792 0.1714427541
| 26> *
| 27>
| 28>                          ****END OF INPUT****

CARTESIAN COORDINATES (ANGSTROEM)
---------------------------------
  C     -2.420933   -0.868751    1.000036
  C     -2.051055   -0.752004   -0.473619
  C     -1.426759    0.611167   -0.795259
  C     -0.116225    0.800383   -0.075922
  O      0.121354    1.692515    0.714118
  O      0.771067   -0.126001   -0.406932
  C      2.065355   -0.064145    0.213402
  C      2.882269   -1.243927   -0.276320
  H     -3.141026   -0.101531    1.274873
  H     -2.856653   -1.842564    1.206748
  H     -1.540782   -0.743957    1.628408
  H     -2.946235   -0.875743   -1.083822
  H     -1.342555   -1.536790   -0.741127
  H     -2.094055    1.420708   -0.499580
  H     -1.229849    0.675729   -1.866095
  H      2.530097    0.890985   -0.053027
  H      1.930998   -0.083739    1.300154
  H      2.397119   -2.174850    0.001527
  H      2.976301   -1.206654   -1.357502
  H      3.869802   -1.207250    0.171443

 Total Charge           Charge          ....    0
 Multiplicity           Mult            ....    1
 Number of Electrons    NEL             ....   64
 Basis Dimension        Dim             ....  222

ORBITAL ENERGIES
----------------

  NO   OCC          E(Eh)            E(eV)
   0   2.0000     -18.996607      -516.9240
   1   2.0000     -18.925987      -515.0023
   2   2.0000     -10.149946      -276.1941
   3   2.0000     -10.092165      -274.6218
   4   2.0000     -10.040746      -273.2226
   5   2.0000     -10.036436      -273.1053
   6   2.0000     -10.032746      -273.0049
   7   2.0000     -10.020110      -272.6611
   8   2.0000      -1.072146       -29.1746
   9   2.0000      -0.972602       -26.4658
  10   2.0000      -0.776245       -21.1227
  11   2.0000      -0.741896       -20.1880
  12   2.0000      -0.677864       -18.4456
  13   2.0000      -0.615828       -16.7575
  14   2.0000      -0.570095       -15.5131
  15   2.0000      -0.534100       -14.5336
  16   2.0000      -0.469939       -12.7877
  17   2.0000      -0.455993       -12.4082
  18   2.0000      -0.439098       -11.9485
  19   2.0000      -0.424636       -11.5549
  20   2.0000      -0.409669       -11.1476
  21   2.0000      -0.379530       -10.3275
  22   2.0000      -0.378712       -10.3053
  23   2.0000      -0.370892       -10.0925
  24   2.0000      -0.355120        -9.6633
  25   2.0000      -0.334473        -9.1015
  26   2.0000      -0.327789        -8.9196
  27   2.0000      -0.313108        -8.5201
  28   2.0000      -0.310434        -8.4473
  29   2.0000      -0.308504        -8.3948
  30   2.0000      -0.271167        -7.3788
  31   2.0000      -0.230083        -6.2609
  32   0.0000      -0.014474        -0.3938
  33   0.0000       0.070429         1.9165
  34   0.0000       0.094592         2.5740
  35   0.0000       0.114089         3.1045
  36   0.0000       0.119624         3.2551

MULLIKEN ATOMIC CHARGES
-----------------------
   0 C :   -0.480494
   1 C :   -0.224819
   2 C :   -0.319494
   3 C :    0.344881
   4 O :   -0.416256
   5 O :   -0.158375
   6 C :   -0.145921
   7 C :   -0.443533
   8 H :    0.149341
   9 H :    0.147321
  10 H :    0.153906
  11 H :    0.145114
  12 H :    0.151994
  13 H :    0.170465
  14 H :    0.159398
  15 H :    0.156171
  16 H :    0.158282
  17 H :    0.151768
  18 H :    0.152643
  19 H :    0.147609
Sum of atomic charges:   -0.0000000

LOEWDIN ATOMIC CHARGES
----------------------
   0 C :   -0.414764
   1 C :   -0.294018
   2 C :   -0.231282
   3 C :    0.348887
   4 O :   -0.424385
   5 O :   -0.603509
   6 C :    0.034346
   7 C :   -0.387030
   8 H :    0.153375
   9 H :    0.151808
  10 H :    0.155696
  11 H :    0.153026
  12 H :    0.163896
  13 H :    0.177651
  14 H :    0.179405
  15 H :    0.178976
  16 H :    0.179752
  17 H :    0.158868
  18 H :    0.159546
  19 H :    0.159757

  Mayer bond orders larger than 0.100000
B(  0-C ,  1-C ) :   0.9128 B(  0-C ,  8-H ) :   0.9783 B(  0-C ,  9-H ) :   0.9702
B(  0-C , 10-H ) :   0.9707 B(  1-C ,  2-C ) :   0.8862 B(  1-C , 11-H ) :   0.9644
B(  1-C , 12-H ) :   0.9718 B(  2-C ,  3-C ) :   0.9557 B(  2-C , 13-H ) :   1.0058
B(  2-C , 14-H ) :   0.9459 B(  3-C ,  4-O ) :   1.8278 B(  3-C ,  5-O ) :   1.0541
B(  5-O ,  6-C ) :   0.8094 B(  6-C ,  7-C ) :   0.9399 B(  6-C , 15-H ) :   0.9535
B(  6-C , 16-H ) :   0.9544 B(  7-C , 17-H ) :   0.9727 B(  7-C , 18-H ) :   0.9717
B(  7-C , 19-H ) :   0.9682

Dispersion correction           -0.005114133
FINAL SINGLE POINT ENERGY      -386.236073954565

DIPOLE MOMENT
-------------

Method             : SCF
Type of density    : Electron Density
Multiplicity       :   1
Irrep              :   0
Energy             :  -386.2425909207717041 Eh
Relativity type    :
Basis              : AO
                                X                 Y                 Z
Electronic contribution:      1.499967873       5.549759398      -0.436769947
Nuclear contribution   :     -1.344141429      -6.342846768      -0.012331919
                        -----------------------------------------
Total Dipole Moment    :      0.155826444      -0.793087369      -0.449101866
                        -----------------------------------------
Magnitude (a.u.)       :      0.924641521
Magnitude (Debye)      :      2.350251969

Rotational constants in cm-1:             0.106070             0.038971             0.033977
Rotational constants in MHz :          3179.885664          1168.311600          1018.595748

                             ****ORCA TERMINATED NORMALLY****
TOTAL RUN TIME: 0 days 0 hours 0 minutes 31 seconds 250 msec
