                         Program Version 6.0.0  -   RELEASE  -
|  1> ! r2scan-3c def2/J RI DEFGRID2 scfconv6 printgap
|  2> %output
|  3>     printlevel normal
|  4> end
|  5> %cpcm
|  6>     smd true
|  7>     smdsolvent "water"
|  8> end
|  9> * xyz 0 1
| 10> C -2.420933056 -0.8687511787 1.0000362975
| 11> C -2.0510552697 -0.7520036402 -0.4736185413
| 12> C -1.42675934 0.6111669901 -0.7952591311
| 13> C -0.116224805 0.8003829128 -0.0759223775
| 14> O 0.1213537081 1.6925146411 0.7141184671
| 15> O 0.7710666925 -0.1260012225 -0.4069317235
| 16> C 2.0653552357 -0.0641446082 0.21340236
| 17> C 2.882268651 -1.2439274215 -0.2763200209
| 18> H -3.1410258806 -0.1015306789 1.2748728422
| 19> H -2.8566526032 -1.8425636331 1.2067479498
| 20> H -1.5407823466 -0.7439565508 1.6284075131
| 21> H -2.9462347165 -0.8757434107 -1.083821923
| 22> H -1.3425548999 -1.5367895154 -0.7411267431
| 23> H -2.094054867 1.4207083201 -0.4995800662
| 24> H -1.2298485524 0.6757290587 -1.8660948607
| 25> H 2.5300970626 0.8909846056 -0.05302713
| 26> H 1.93099822 -0.0837394327 1.3001544335
| 27> H 2.397118966 -2.1748501659 0.0015271402
| 28> H 2.9763005437 -1.2066537395 -1.3575018408
| 29> H 3.869801972 -1.2072495792 0.1714427541
| 30> *
| 31>
| 32>                          ****END OF INPUT****

CARTESIAN COORDINATES (ANGSTROEM)
---------------------------------
  C     -2.420933   -0.868751    1.000036
  C     -2.051055   -0.752004   -0.473619
  C     -1.426759    0.611167   -0.795259
  C     -0.116225    0.800383   -0.075922
  O      0.121354    1.692515    0.714118
  O      0.771067   -0.126001   -0.406932
  C      2.065355   -0.064145    0.213402
  C      2.882269   -1.243927   -0.276320
  H     -3.141026   -0.101531    1.274873
  H     -2.856653   -1.842564    1.206748
  H     -1.540782   -0.743957    1.628408
  H     -2.946235   -0.875743   -1.083822
  H     -1.342555   -1.536790   -0.741127
  H     -2.094055    1.420708   -0.499580
  H     -1.229849    0.675729   -1.866095
  H      2.530097    0.890985   -0.053027
  H      1.930998   -0.083739    1.300154
  H      2.397119   -2.174850    0.001527
  H      2.976301   -1.206654   -1.357502
  H      3.869802   -1.207250    0.171443

 Total Charge           Charge          ....    0
 Multiplicity           Mult            ....    1
 Number of Electrons    NEL             ....   64
 Basis Dimension        Dim             ....  222

ORBITAL ENERGIES
----------------

  NO   OCC          E(Eh)            E(eV)
   0   2.0000     -19.002310      -517.0791
   1   2.0000     -18.943393      -515.4759
   2   2.0000     -10.161709      -276.5142
   3   2.0000     -10.084295      -274.4076
   4   2.0000     -10.035572      -273.0818
   5   2.0000     -10.028406      -272.8868
   6   2.0000     -10.018835      -272.6264
   7   2.0000     -10.011761      -272.4339
   8   2.0000      -1.079823       -29.3835
   9   2.0000      -0.987659       -26.8756
  10   2.0000      -0.771439       -20.9919
  11   2.0000      -0.733606       -19.9624
  12   2.0000      -0.671953       -18.2848
  13   2.0000      -0.609000       -16.5717
  14   2.0000      -0.563955       -15.3460
  15   2.0000      -0.532395       -14.4872
  16   2.0000      -0.468948       -12.7607
  17   2.0000      -0.454222       -12.3600
  18   2.0000      -0.452485       -12.3128
  19   2.0000      -0.420364       -11.4387
  20   2.0000      -0.404649       -11.0111
  21   2.0000      -0.377156       -10.2629
  22   2.0000      -0.372070       -10.1245
  23   2.0000      -0.363635        -9.8950
  24   2.0000      -0.348719        -9.4891
  25   2.0000      -0.328968        -8.9517
  26   2.0000      -0.322410        -8.7732
  27   2.0000      -0.312446        -8.5021
  28   2.0000      -0.306502        -8.3403
  29   2.0000      -0.301813        -8.2127
  30   2.0000      -0.276738        -7.5304
  31   2.0000      -0.247348        -6.7307
  32   0.0000      -0.023604        -0.6423
  33   0.0000       0.075145         2.0448
  34   0.0000       0.103723         2.8224
  35   0.0000       0.122604         3.3362
  36   0.0000       0.125194         3.4067

MULLIKEN ATOMIC CHARGES
-----------------------
   0 C :   -0.526863
   1 C :   -0.219467
   2 C :   -0.339528
   3 C :    0.389607
   4 O :   -0.506740
   5 O :   -0.171048
   6 C :   -0.150102
   7 C :   -0.492385
   8 H :    0.162944
   9 H :    0.161648
  10 H :    0.161300
  11 H :    0.162754
  12 H :    0.155470
  13 H :    0.179852
  14 H :    0.189474
  15 H :    0.171539
  16 H :    0.172084
  17 H :    0.165357
  18 H :    0.165068
  19 H :    0.169036
Sum of atomic charges:   -0.0000000

LOEWDIN ATOMIC CHARGES
----------------------
   0 C :   -0.422848
   1 C :   -0.290506
   2 C :   -0.229243
   3 C :    0.358773
   4 O :   -0.488811
   5 O :   -0.602579
   6 C :    0.036562
   7 C :   -0.389844
   8 H :    0.156108
   9 H :    0.156475
  10 H :    0.155916
  11 H :    0.160119
  12 H :    0.164792
  13 H :    0.181435
  14 H :    0.191279
  15 H :    0.184041
  16 H :    0.184636
  17 H :    0.162530
  18 H :    0.162803
  19 H :    0.168362

  Mayer bond orders larger than 0.100000
B(  0-C ,  1-C ) :   0.8984 B(  0-C ,  8-H ) :   0.9773 B(  0-C ,  9-H ) :   0.9661
B(  0-C , 10-H ) :   0.9690 B(  1-C ,  2-C ) :   0.8772 B(  1-C , 11-H ) :   0.9612
B(  1-C , 12-H ) :   0.9713 B(  2-C ,  3-C ) :   0.9538 B(  2-C , 13-H ) :   1.0018
B(  2-C , 14-H ) :   0.9358 B(  3-C ,  4-O ) :   1.7528 B(  3-C ,  5-O ) :   1.0865
B(  5-O ,  6-C ) :   0.7950 B(  6-C ,  7-C ) :   0.9430 B(  6-C , 15-H ) :   0.9456
B(  6-C , 16-H ) :   0.9469 B(  7-C , 17-H ) :   0.9706 B(  7-C , 18-H ) :   0.9697
B(  7-C , 19-H ) :   0.9618

Dispersion correction           -0.005114133
FINAL SINGLE POINT ENERGY      -386.241973170963

DIPOLE MOMENT
-------------

Method             : SCF
Type of density    : Electron Density
Multiplicity       :   1
Irrep              :   0
Energy             :  -386.2484901371695969 Eh
Relativity type    :
Basis              : AO
                                X                 Y                 Z
Electronic contribution:      1.514349522       5.257945108      -0.651142355
Nuclear contribution   :     -1.344141429      -6.342846768      -0.012331919
                        -----------------------------------------
Total Dipole Moment    :      0.170208093      -1.084901660      -0.663474275
                        -----------------------------------------
Magnitude (a.u.)       :      1.283035666
Magnitude (Debye)      :      3.261217489

Rotational constants in cm-1:             0.106070             0.038971             0.033977
Rotational constants in MHz :          3179.885664          1168.311600          1018.595748

                             ****ORCA TERMINATED NORMALLY****
TOTAL RUN TIME: 0 days 0 hours 0 minutes 40 seconds 45 msec
