                         Program Version 6.0.0  -   RELEASE  -
|  1> ! pbe def2-sv(p) def2/J RI DEFGRID1 loosescf d4 GCP(DFT/SV(P)) printgap
|  2> %output
|  3>     printlevel normal
|  4> end
|  5> * xyz 0 1
|  6> C 2.9003715087 -0.6567349982 -0.5425614004
|  7> C 2.423363562 0.2871318839 0.5558467494
|  8> C 0.9063921247 0.2738017939 0.7462745767
|  9> C 0.1485055406 0.8528959457 -0.4474686264
| 10> C -1.345093659 0.9497347394 -0.1966858303
| 11> Cl -2.0849071818 -0.6840864223 -0.0292797914
| 12> H 2.5481849068 -0.3335525895 -1.5182747145
| 13> H 2.5357171945 -1.6653852452 -0.3607527813
| 14> H 3.9870411223 -0.6849407619 -0.5682351331
| 15> H 2.8904874398 -0.0066755738 1.498269209
| 16> H 2.7495167655 1.3040333758 0.3279290122
| 17> H 0.6593118091 0.8583877402 1.6355461529
| 18> H 0.5738113309 -0.7515230063 0.9210310601
| 19> H 0.3231763433 0.2418652536 -1.3331124637
| 20> H 0.5110976424 1.862757358 -0.6510757531
| 21> H -1.5640379911 1.4736132507 0.7322478231
| 22> H -1.8614179218 1.4241986792 -1.0289227887
| 23> *
| 24>
| 25>                          ****END OF INPUT****

CARTESIAN COORDINATES (ANGSTROEM)
---------------------------------
  C      2.900372   -0.656735   -0.542561
  C      2.423364    0.287132    0.555847
  C      0.906392    0.273802    0.746275
  C      0.148506    0.852896   -0.447469
  C     -1.345094    0.949735   -0.196686
  Cl    -2.084907   -0.684086   -0.029280
  H      2.548185   -0.333553   -1.518275
  H      2.535717   -1.665385   -0.360753
  H      3.987041   -0.684941   -0.568235
  H      2.890487   -0.006676    1.498269
  H      2.749517    1.304033    0.327929
  H      0.659312    0.858388    1.635546
  H      0.573811   -0.751523    0.921031
  H      0.323176    0.241865   -1.333112
  H      0.511098    1.862757   -0.651076
  H     -1.564038    1.473613    0.732248
  H     -1.861418    1.424199   -1.028923

 Total Charge           Charge          ....    0
 Multiplicity           Mult            ....    1
 Number of Electrons    NEL             ....   58
 Basis Dimension        Dim             ....  110

ORBITAL ENERGIES
----------------

  NO   OCC          E(Eh)            E(eV)
   0   2.0000    -100.615254     -2737.8802
   1   2.0000      -9.939476      -270.4669
   2   2.0000      -9.895211      -269.2624
   3   2.0000      -9.884612      -268.9740
   4   2.0000      -9.883725      -268.9498
   5   2.0000      -9.873248      -268.6647
   6   2.0000      -9.150940      -249.0097
   7   2.0000      -6.982450      -190.0021
   8   2.0000      -6.970716      -189.6828
   9   2.0000      -6.970507      -189.6771
  10   2.0000      -0.775366       -21.0988
  11   2.0000      -0.719169       -19.5696
  12   2.0000      -0.664605       -18.0848
  13   2.0000      -0.601598       -16.3703
  14   2.0000      -0.544470       -14.8158
  15   2.0000      -0.506701       -13.7880
  16   2.0000      -0.433206       -11.7881
  17   2.0000      -0.411901       -11.2084
  18   2.0000      -0.404784       -11.0147
  19   2.0000      -0.387791       -10.5523
  20   2.0000      -0.354953        -9.6588
  21   2.0000      -0.347510        -9.4562
  22   2.0000      -0.334141        -9.0924
  23   2.0000      -0.314656        -8.5622
  24   2.0000      -0.290612        -7.9080
  25   2.0000      -0.288544        -7.8517
  26   2.0000      -0.282317        -7.6822
  27   2.0000      -0.244009        -6.6398
  28   2.0000      -0.241165        -6.5624
  29   0.0000       0.012266         0.3338
  30   0.0000       0.036828         1.0021
  31   0.0000       0.053753         1.4627
  32   0.0000       0.061597         1.6761
  33   0.0000       0.079549         2.1646

MULLIKEN ATOMIC CHARGES
-----------------------
   0 C :   -0.294404
   1 C :   -0.158322
   2 C :   -0.177980
   3 C :   -0.178529
   4 C :   -0.148958
   5 Cl:   -0.157911
   6 H :    0.107780
   7 H :    0.102329
   8 H :    0.103687
   9 H :    0.087039
  10 H :    0.079861
  11 H :    0.079462
  12 H :    0.093449
  13 H :    0.105384
  14 H :    0.090724
  15 H :    0.130887
  16 H :    0.135502
Sum of atomic charges:   -0.0000000

LOEWDIN ATOMIC CHARGES
----------------------
   0 C :   -0.343163
   1 C :   -0.232922
   2 C :   -0.232889
   3 C :   -0.250202
   4 C :   -0.266444
   5 Cl:    0.018967
   6 H :    0.116230
   7 H :    0.119140
   8 H :    0.120022
   9 H :    0.116902
  10 H :    0.112100
  11 H :    0.114341
  12 H :    0.114849
  13 H :    0.122107
  14 H :    0.123936
  15 H :    0.122945
  16 H :    0.124081

  Mayer bond orders larger than 0.100000
B(  0-C ,  1-C ) :   1.1513 B(  0-C ,  6-H ) :   0.9521 B(  0-C ,  7-H ) :   0.9547
B(  0-C ,  8-H ) :   0.9518 B(  1-C ,  2-C ) :   1.1280 B(  1-C ,  9-H ) :   0.9279
B(  1-C , 10-H ) :   0.9262 B(  2-C ,  3-C ) :   1.1231 B(  2-C , 11-H ) :   0.9222
B(  2-C , 12-H ) :   0.9150 B(  3-C ,  4-C ) :   1.1082 B(  3-C , 13-H ) :   0.9115
B(  3-C , 14-H ) :   0.9050 B(  4-C ,  5-Cl) :   1.0297 B(  4-C , 15-H ) :   0.9259
B(  4-C , 16-H ) :   0.9319

Dispersion correction           -0.013068952
FINAL SINGLE POINT ENERGY      -656.512624376692

DIPOLE MOMENT
-------------

Method             : SCF
Type of density    : Electron Density
Multiplicity       :   1
Irrep              :   0
Energy             :  -656.5702816207957540 Eh
Relativity type    :
Basis              : AO
                                X                 Y                 Z
Electronic contribution:    -14.942821438      -3.813537446       0.225415186
Nuclear contribution   :     15.325630699       4.410777510      -0.284697116
                        -----------------------------------------
Total Dipole Moment    :      0.382809261       0.597240065      -0.059281931
                        -----------------------------------------
Magnitude (a.u.)       :      0.711865839
Magnitude (Debye)      :      1.809419166

Rotational constants in cm-1:             0.196682             0.038343             0.036044
Rotational constants in MHz :          5896.383937          1149.490709          1080.565911

                             ****ORCA TERMINATED NORMALLY****
TOTAL RUN TIME: 0 days 0 hours 0 minutes 7 seconds 354 msec
