                         Program Version 6.0.0  -   RELEASE  -
|  1> ! pbe def2-sv(p) def2/J RI DEFGRID1 loosescf d4 GCP(DFT/SV(P)) printgap
|  2> %output
|  3>     printlevel normal
|  4> end
|  5> * xyz 0 1
|  6> C -2.6665097265 -0.965909006 0.1534016643
|  7> C -2.9127586898 0.5357051634 0.2370686001
|  8> C -1.7665405139 1.3915717408 -0.3059261953
|  9> C -0.487898614 1.3315725727 0.5123998514
| 10> I 0.8924040912 -0.2529078823 -0.0696085987
| 11> H -2.3854853119 -1.2534889343 -0.8574902952
| 12> H -1.8777107059 -1.2783104453 0.8323861182
| 13> H -3.5705168007 -1.506412602 0.4233290915
| 14> H -3.1062100589 0.8143701619 1.2757721956
| 15> H -3.8078686092 0.7773270919 -0.3398444246
| 16> H -1.5681819451 1.1228511393 -1.3452157378
| 17> H -2.0956713091 2.4346882032 -0.2982497879
| 18> H -0.6942580551 1.1680396802 1.5666735926
| 19> H 0.0953830913 2.2402874692 0.3934373565
| 20> *
| 21>
| 22>                          ****END OF INPUT****

CARTESIAN COORDINATES (ANGSTROEM)
---------------------------------
  C     -2.666510   -0.965909    0.153402
  C     -2.912759    0.535705    0.237069
  C     -1.766541    1.391572   -0.305926
  C     -0.487899    1.331573    0.512400
  I      0.892404   -0.252908   -0.069609
  H     -2.385485   -1.253489   -0.857490
  H     -1.877711   -1.278310    0.832386
  H     -3.570517   -1.506413    0.423329
  H     -3.106210    0.814370    1.275772
  H     -3.807869    0.777327   -0.339844
  H     -1.568182    1.122851   -1.345216
  H     -2.095671    2.434688   -0.298250
  H     -0.694258    1.168040    1.566674
  H      0.095383    2.240287    0.393437

 Total Charge           Charge          ....    0
 Multiplicity           Mult            ....    1
 Number of Electrons    NEL             ....   58
 Basis Dimension        Dim             ....  100

ORBITAL ENERGIES
----------------

  NO   OCC          E(Eh)            E(eV)
   0   2.0000      -9.935723      -270.3648
   1   2.0000      -9.901442      -269.4319
   2   2.0000      -9.892280      -269.1826
   3   2.0000      -9.874081      -268.6874
   4   2.0000      -6.593627      -179.4217
   5   2.0000      -4.665479      -126.9541
   6   2.0000      -4.648653      -126.4963
   7   2.0000      -4.648326      -126.4874
   8   2.0000      -1.801532       -49.0222
   9   2.0000      -1.797134       -48.9025
  10   2.0000      -1.796896       -48.8960
  11   2.0000      -1.783340       -48.5271
  12   2.0000      -1.783319       -48.5266
  13   2.0000      -0.736108       -20.0305
  14   2.0000      -0.671889       -18.2830
  15   2.0000      -0.620457       -16.8835
  16   2.0000      -0.561861       -15.2890
  17   2.0000      -0.514742       -14.0069
  18   2.0000      -0.428659       -11.6644
  19   2.0000      -0.412953       -11.2370
  20   2.0000      -0.389731       -10.6051
  21   2.0000      -0.358296        -9.7497
  22   2.0000      -0.346762        -9.4359
  23   2.0000      -0.321691        -8.7536
  24   2.0000      -0.297877        -8.1056
  25   2.0000      -0.295607        -8.0439
  26   2.0000      -0.286602        -7.7988
  27   2.0000      -0.217893        -5.9292
  28   2.0000      -0.214256        -5.8302
  29   0.0000      -0.058093        -1.5808
  30   0.0000       0.031150         0.8476
  31   0.0000       0.062076         1.6892
  32   0.0000       0.071301         1.9402
  33   0.0000       0.085463         2.3256

MULLIKEN ATOMIC CHARGES
-----------------------
   0 C :   -0.285802
   1 C :   -0.192684
   2 C :   -0.142049
   3 C :   -0.355051
   4 I :   -0.049542
   5 H :    0.105649
   6 H :    0.118686
   7 H :    0.102740
   8 H :    0.088250
   9 H :    0.090793
  10 H :    0.111553
  11 H :    0.098179
  12 H :    0.152781
  13 H :    0.156497
Sum of atomic charges:   -0.0000000

LOEWDIN ATOMIC CHARGES
----------------------
   0 C :   -0.348395
   1 C :   -0.233474
   2 C :   -0.245006
   3 C :   -0.330469
   4 I :    0.054872
   5 H :    0.119140
   6 H :    0.116056
   7 H :    0.119486
   8 H :    0.114050
   9 H :    0.118263
  10 H :    0.123787
  11 H :    0.128036
  12 H :    0.130608
  13 H :    0.133046

  Mayer bond orders larger than 0.100000
B(  0-C ,  1-C ) :   1.1576 B(  0-C ,  5-H ) :   0.9530 B(  0-C ,  6-H ) :   0.9470
B(  0-C ,  7-H ) :   0.9500 B(  1-C ,  2-C ) :   1.1339 B(  1-C ,  8-H ) :   0.9258
B(  1-C ,  9-H ) :   0.9264 B(  2-C ,  3-C ) :   1.0845 B(  2-C , 10-H ) :   0.9223
B(  2-C , 11-H ) :   0.9077 B(  3-C ,  4-I ) :   1.0374 B(  3-C , 12-H ) :   0.9229
B(  3-C , 13-H ) :   0.9259

Dispersion correction           -0.011638084
FINAL SINGLE POINT ENERGY      -455.114659610111

DIPOLE MOMENT
-------------

Method             : SCF
Type of density    : Electron Density
Multiplicity       :   1
Irrep              :   0
Energy             :  -455.1633704131095328 Eh
Relativity type    :
Basis              : AO
                                X                 Y                 Z
Electronic contribution:     82.030885953     -22.109018733      -6.473654303
Nuclear contribution   :    -82.581783660      22.589154646       6.599052220
                        -----------------------------------------
Total Dipole Moment    :     -0.550897707       0.480135913       0.125397917
                        -----------------------------------------
Magnitude (a.u.)       :      0.741446840
Magnitude (Debye)      :      1.884608094

Rotational constants in cm-1:             0.186862             0.041463             0.035750
Rotational constants in MHz :          5601.978831          1243.038254          1071.753370

                             ****ORCA TERMINATED NORMALLY****
TOTAL RUN TIME: 0 days 0 hours 0 minutes 14 seconds 143 msec
