                         Program Version 6.0.1  -  RELEASE   -
|  1> ! pbe def2-sv(p) def2/J RI DEFGRID1 loosescf d4 GCP(DFT/SV(P)) printgap
|  2> %output
|  3>     printlevel normal
|  4> end
|  5> * xyz 0 1
|  6> C -3.7830403709 0.9398036264 -1.6422144405
|  7> C -3.3077142666 -0.1014916351 -0.6279094675
|  8> H -3.5831106915 -1.1073210901 -0.9526192044
|  9> C -1.8088672569 -0.0392184416 -0.4340977054
| 10> C -1.2031281298 1.0987693895 0.0869471168
| 11> C 0.166765775 1.1582526119 0.2479138359
| 12> C 0.9892918705 0.0858370645 -0.0970395643
| 13> C 0.3552197771 -1.0396446408 -0.6117775904
| 14> C -1.0120373006 -1.1199644743 -0.7836671533
| 15> F 1.0985460382 -2.1188438786 -0.9971426398
| 16> C 2.448017987 0.1627637138 0.080181077
| 17> C 3.1606578068 -0.8930656747 0.6421742479
| 18> C 4.5299303268 -0.799725719 0.81298342
| 19> C 5.2053286177 0.3444544208 0.4227295552
| 20> C 4.5039406751 1.3993065934 -0.1381648314
| 21> C 3.1346601011 1.3119512215 -0.3059671739
| 22> C -3.9359872429 0.133111442 0.7323804535
| 23> O -4.1787944995 1.2193976219 1.2077329995
| 24> O -4.1615955501 -1.0005145451 1.3738872906
| 25> H -3.6337419526 1.9412544385 -1.248529508
| 26> H -3.2246349654 0.8338572478 -2.5675105313
| 27> H -4.8415900568 0.8054979868 -1.8480390722
| 28> H -1.8139580299 1.9381796213 0.3815966909
| 29> H 0.6194011059 2.0434135676 0.6663452261
| 30> H -1.4360350627 -2.0226399487 -1.1940131336
| 31> H 2.6400016169 -1.7851766619 0.9570766219
| 32> H 5.070446 -1.6241751367 1.2529945082
| 33> H 6.2743074348 0.4135715481 0.5548333014
| 34> H 5.0260615632 2.2923551776 -0.4467837904
| 35> H 2.5915433735 2.128730456 -0.7571176985
| 36> H -4.5317445533 -0.8670529799 2.2687856512
| 37> *
| 38>
| 39>                          ****END OF INPUT****

CARTESIAN COORDINATES (ANGSTROEM)
---------------------------------
  C     -3.783040    0.939804   -1.642214
  C     -3.307714   -0.101492   -0.627909
  H     -3.583111   -1.107321   -0.952619
  C     -1.808867   -0.039218   -0.434098
  C     -1.203128    1.098769    0.086947
  C      0.166766    1.158253    0.247914
  C      0.989292    0.085837   -0.097040
  C      0.355220   -1.039645   -0.611778
  C     -1.012037   -1.119964   -0.783667
  F      1.098546   -2.118844   -0.997143
  C      2.448018    0.162764    0.080181
  C      3.160658   -0.893066    0.642174
  C      4.529930   -0.799726    0.812983
  C      5.205329    0.344454    0.422730
  C      4.503941    1.399307   -0.138165
  C      3.134660    1.311951   -0.305967
  C     -3.935987    0.133111    0.732380
  O     -4.178794    1.219398    1.207733
  O     -4.161596   -1.000515    1.373887
  H     -3.633742    1.941254   -1.248530
  H     -3.224635    0.833857   -2.567511
  H     -4.841590    0.805498   -1.848039
  H     -1.813958    1.938180    0.381597
  H      0.619401    2.043414    0.666345
  H     -1.436035   -2.022640   -1.194013
  H      2.640002   -1.785177    0.957077
  H      5.070446   -1.624175    1.252995
  H      6.274307    0.413572    0.554833
  H      5.026062    2.292355   -0.446784
  H      2.591543    2.128730   -0.757118
  H     -4.531745   -0.867053    2.268786

 Total Charge           Charge          ....    0
 Multiplicity           Mult            ....    1
 Number of Electrons    NEL             ....  128
 Basis Dimension        Dim             ....  278

ORBITAL ENERGIES
----------------

  NO   OCC          E(Eh)            E(eV)
   0   2.0000     -24.270137      -660.4240
   1   2.0000     -18.806914      -511.7621
   2   2.0000     -18.745119      -510.0806
   3   2.0000     -10.018916      -272.6286
   4   2.0000      -9.975881      -271.4575
   5   2.0000      -9.919949      -269.9355
   6   2.0000      -9.918099      -269.8852
   7   2.0000      -9.911639      -269.7094
   8   2.0000      -9.908459      -269.6229
   9   2.0000      -9.902959      -269.4732
  10   2.0000      -9.901173      -269.4246
  11   2.0000      -9.895603      -269.2731
  12   2.0000      -9.895240      -269.2632
  13   2.0000      -9.894631      -269.2466
  14   2.0000      -9.893955      -269.2282
  15   2.0000      -9.893690      -269.2210
  16   2.0000      -9.893423      -269.2137
  17   2.0000      -9.887779      -269.0602
  18   2.0000      -1.094956       -29.7953
  19   2.0000      -1.016081       -27.6490
  20   2.0000      -0.919511       -25.0212
  21   2.0000      -0.799821       -21.7642
  22   2.0000      -0.779118       -21.2009
  23   2.0000      -0.740038       -20.1375
  24   2.0000      -0.697117       -18.9695
  25   2.0000      -0.677730       -18.4420
  26   2.0000      -0.671923       -18.2840
  27   2.0000      -0.647838       -17.6286
  28   2.0000      -0.619526       -16.8582
  29   2.0000      -0.576274       -15.6812
  30   2.0000      -0.565087       -15.3768
  31   2.0000      -0.539573       -14.6825
  32   2.0000      -0.536605       -14.6018
  33   2.0000      -0.524426       -14.2704
  34   2.0000      -0.487683       -13.2705
  35   2.0000      -0.470780       -12.8106
  36   2.0000      -0.457537       -12.4502
  37   2.0000      -0.437458       -11.9038
  38   2.0000      -0.428554       -11.6615
  39   2.0000      -0.421571       -11.4715
  40   2.0000      -0.418165       -11.3789
  41   2.0000      -0.409585       -11.1454
  42   2.0000      -0.399387       -10.8679
  43   2.0000      -0.398086       -10.8325
  44   2.0000      -0.392219       -10.6728
  45   2.0000      -0.383565       -10.4373
  46   2.0000      -0.375413       -10.2155
  47   2.0000      -0.362187        -9.8556
  48   2.0000      -0.357870        -9.7381
  49   2.0000      -0.348644        -9.4871
  50   2.0000      -0.339656        -9.2425
  51   2.0000      -0.334400        -9.0995
  52   2.0000      -0.327219        -8.9041
  53   2.0000      -0.317817        -8.6482
  54   2.0000      -0.316218        -8.6047
  55   2.0000      -0.310725        -8.4553
  56   2.0000      -0.302550        -8.2328
  57   2.0000      -0.291814        -7.9407
  58   2.0000      -0.280286        -7.6270
  59   2.0000      -0.252520        -6.8714
  60   2.0000      -0.231816        -6.3080
  61   2.0000      -0.231407        -6.2969
  62   2.0000      -0.227675        -6.1954
  63   2.0000      -0.207353        -5.6424
  64   0.0000      -0.064384        -1.7520
  65   0.0000      -0.040113        -1.0915
  66   0.0000      -0.036383        -0.9900
  67   0.0000      -0.027700        -0.7537
  68   0.0000      -0.008759        -0.2383

MULLIKEN ATOMIC CHARGES
-----------------------
   0 C :   -0.222007
   1 C :   -0.120653
   2 H :    0.077860
   3 C :    0.104911
   4 C :   -0.104196
   5 C :   -0.113482
   6 C :    0.029988
   7 C :    0.264425
   8 C :   -0.226631
   9 F :   -0.172037
  10 C :    0.112986
  11 C :   -0.096601
  12 C :   -0.052335
  13 C :   -0.045376
  14 C :   -0.049201
  15 C :   -0.111269
  16 C :    0.111270
  17 O :   -0.187721
  18 O :   -0.280319
  19 H :    0.124478
  20 H :    0.110921
  21 H :    0.107748
  22 H :    0.063746
  23 H :    0.051832
  24 H :    0.043610
  25 H :    0.049871
  26 H :    0.053991
  27 H :    0.054743
  28 H :    0.053375
  29 H :    0.049033
  30 H :    0.317041
Sum of atomic charges:    0.0000000

LOEWDIN ATOMIC CHARGES
----------------------
   0 C :   -0.316757
   1 C :   -0.153287
   2 H :    0.133000
   3 C :   -0.021732
   4 C :   -0.126643
   5 C :   -0.101387
   6 C :   -0.055794
   7 C :    0.080244
   8 C :   -0.145466
   9 F :   -0.055092
  10 C :   -0.028164
  11 C :   -0.108474
  12 C :   -0.120107
  13 C :   -0.122325
  14 C :   -0.120860
  15 C :   -0.113791
  16 C :    0.037239
  17 O :   -0.166968
  18 O :   -0.196525
  19 H :    0.129319
  20 H :    0.126156
  21 H :    0.124532
  22 H :    0.132462
  23 H :    0.130197
  24 H :    0.135311
  25 H :    0.125584
  26 H :    0.124865
  27 H :    0.124080
  28 H :    0.124566
  29 H :    0.125427
  30 H :    0.300387

  Mayer bond orders larger than 0.100000
B(  0-C ,  1-C ) :   1.1031 B(  0-C , 19-H ) :   0.9355 B(  0-C , 20-H ) :   0.9489
B(  0-C , 21-H ) :   0.9492 B(  1-C ,  2-H ) :   0.8718 B(  1-C ,  3-C ) :   1.0105
B(  1-C , 16-C ) :   0.9245 B(  3-C ,  4-C ) :   1.3586 B(  3-C ,  8-C ) :   1.3334
B(  4-C ,  5-C ) :   1.3516 B(  4-C , 22-H ) :   0.9529 B(  5-C ,  6-C ) :   1.3535
B(  5-C , 23-H ) :   0.9597 B(  6-C ,  7-C ) :   1.3430 B(  6-C , 10-C ) :   0.9728
B(  7-C ,  8-C ) :   1.3273 B(  7-C ,  9-F ) :   1.1033 B(  8-C , 24-H ) :   0.9665
B( 10-C , 11-C ) :   1.3783 B( 10-C , 15-C ) :   1.3792 B( 11-C , 12-C ) :   1.3754
B( 11-C , 25-H ) :   0.9607 B( 12-C , 13-C ) :   1.3742 B( 12-C , 26-H ) :   0.9631
B( 13-C , 14-C ) :   1.3765 B( 13-C , 27-H ) :   0.9655 B( 14-C , 15-C ) :   1.3717
B( 14-C , 28-H ) :   0.9637 B( 15-C , 29-H ) :   0.9586 B( 16-C , 17-O ) :   2.0753
B( 16-C , 18-O ) :   1.3109 B( 18-O , 30-H ) :   0.8188

Dispersion correction           -0.040022916
FINAL SINGLE POINT ENERGY      -828.019284114954

DIPOLE MOMENT
-------------

Method             : SCF
Type of density    : Electron Density
Multiplicity       :   1
Irrep              :   0
Energy             :  -828.1091895703480077 Eh
Relativity type    :
Basis              : AO
                                X                 Y                 Z
Electronic contribution:      1.720959661      -6.875647493       1.915289482
Nuclear contribution   :     -1.932252207       6.648323298      -1.789543972
                        -----------------------------------------
Total Dipole Moment    :     -0.211292546      -0.227324195       0.125745510
                        -----------------------------------------
Magnitude (a.u.)       :      0.334862305
Magnitude (Debye)      :      0.851152336

Rotational constants in cm-1:             0.036361             0.006393             0.006097
Rotational constants in MHz :          1090.073896           191.647835           182.789954

                             ****ORCA TERMINATED NORMALLY****
TOTAL RUN TIME: 0 days 0 hours 0 minutes 16 seconds 305 msec
