                         Program Version 6.0.1  -  RELEASE   -
|  1> ! r2scan-3c def2/J RI DEFGRID2 scfconv6 printgap
|  2> %output
|  3>     printlevel normal
|  4> end
|  5> * xyz 0 1
|  6> C -3.9179538908 0.1835591546 1.850366932
|  7> C -3.3305154965 0.4441929495 0.4654256403
|  8> H -3.599329718 1.4419473342 0.1119114465
|  9> C -1.8248082093 0.3002862699 0.4078078431
| 10> C -1.1605939897 -0.7109775539 1.0915903072
| 11> C 0.2122144851 -0.8366153804 1.0054723349
| 12> C 0.9807259633 0.0339630606 0.2334412662
| 13> C 0.2871165373 1.0255857259 -0.4526113282
| 14> C -1.0833010684 1.1680047451 -0.3835560336
| 15> F 0.9662337492 1.8920772976 -1.2615801001
| 16> C 2.442634209 -0.1111691507 0.1532357961
| 17> C 3.0087155718 -1.3749956272 -0.001022087
| 18> C 4.3811134956 -1.5242053115 -0.0713535225
| 19> C 5.2074583758 -0.4157465332 0.0164429381
| 20> C 4.6533438142 0.84354904 0.173648512
| 21> C 3.2805713398 0.9974663592 0.2406694474
| 22> C -3.8495084689 -0.5588660434 -0.5505314675
| 23> O -4.0972625919 -1.7192350875 -0.31318886
| 24> O -3.9584426531 -0.0286235685 -1.7563833843
| 25> H -3.3383630087 0.7048186857 2.606138129
| 26> H -4.9458292253 0.5340089968 1.8878283083
| 27> H -3.9168732727 -0.8816142593 2.0656829961
| 28> H -1.719493326 -1.4094659179 1.6921395633
| 29> H 0.712848687 -1.6161973397 1.5578007595
| 30> H -1.5581184656 1.9518360499 -0.9524811526
| 31> H 2.3660913565 -2.2384480943 -0.0862299759
| 32> H 4.8076090521 -2.5079564203 -0.1969314688
| 33> H 6.2790087429 -0.5327403382 -0.0385162549
| 34> H 5.2918601188 1.7111151679 0.2449282419
| 35> H 2.8570438704 1.9818877254 0.3729413405
| 36> H -4.2476227103 -0.6713240965 -2.4335527371
| 37> *
| 38>
| 39>                          ****END OF INPUT****

CARTESIAN COORDINATES (ANGSTROEM)
---------------------------------
  C     -3.917954    0.183559    1.850367
  C     -3.330515    0.444193    0.465426
  H     -3.599330    1.441947    0.111911
  C     -1.824808    0.300286    0.407808
  C     -1.160594   -0.710978    1.091590
  C      0.212214   -0.836615    1.005472
  C      0.980726    0.033963    0.233441
  C      0.287117    1.025586   -0.452611
  C     -1.083301    1.168005   -0.383556
  F      0.966234    1.892077   -1.261580
  C      2.442634   -0.111169    0.153236
  C      3.008716   -1.374996   -0.001022
  C      4.381113   -1.524205   -0.071354
  C      5.207458   -0.415747    0.016443
  C      4.653344    0.843549    0.173649
  C      3.280571    0.997466    0.240669
  C     -3.849508   -0.558866   -0.550531
  O     -4.097263   -1.719235   -0.313189
  O     -3.958443   -0.028624   -1.756383
  H     -3.338363    0.704819    2.606138
  H     -4.945829    0.534009    1.887828
  H     -3.916873   -0.881614    2.065683
  H     -1.719493   -1.409466    1.692140
  H      0.712849   -1.616197    1.557801
  H     -1.558118    1.951836   -0.952481
  H      2.366091   -2.238448   -0.086230
  H      4.807609   -2.507956   -0.196931
  H      6.279009   -0.532740   -0.038516
  H      5.291860    1.711115    0.244928
  H      2.857044    1.981888    0.372941
  H     -4.247623   -0.671324   -2.433553

 Total Charge           Charge          ....    0
 Multiplicity           Mult            ....    1
 Number of Electrons    NEL             ....  128
 Basis Dimension        Dim             ....  422

ORBITAL ENERGIES
----------------

  NO   OCC          E(Eh)            E(eV)
   0   2.0000     -24.497427      -666.6089
   1   2.0000     -19.011927      -517.3408
   2   2.0000     -18.941243      -515.4174
   3   2.0000     -10.168306      -276.6937
   4   2.0000     -10.124822      -275.5104
   5   2.0000     -10.067449      -273.9492
   6   2.0000     -10.062716      -273.8204
   7   2.0000     -10.057511      -273.6788
   8   2.0000     -10.052542      -273.5436
   9   2.0000     -10.048194      -273.4253
  10   2.0000     -10.047097      -273.3954
  11   2.0000     -10.041348      -273.2390
  12   2.0000     -10.039327      -273.1840
  13   2.0000     -10.038443      -273.1599
  14   2.0000     -10.037916      -273.1456
  15   2.0000     -10.037580      -273.1364
  16   2.0000     -10.037247      -273.1274
  17   2.0000     -10.032691      -273.0034
  18   2.0000      -1.180847       -32.1325
  19   2.0000      -1.085914       -29.5492
  20   2.0000      -0.987643       -26.8751
  21   2.0000      -0.854108       -23.2415
  22   2.0000      -0.831525       -22.6270
  23   2.0000      -0.790080       -21.4992
  24   2.0000      -0.744810       -20.2673
  25   2.0000      -0.727262       -19.7898
  26   2.0000      -0.720096       -19.5948
  27   2.0000      -0.694256       -18.8917
  28   2.0000      -0.657233       -17.8842
  29   2.0000      -0.611825       -16.6486
  30   2.0000      -0.600165       -16.3313
  31   2.0000      -0.574044       -15.6205
  32   2.0000      -0.570281       -15.5181
  33   2.0000      -0.554682       -15.0937
  34   2.0000      -0.511568       -13.9205
  35   2.0000      -0.492171       -13.3927
  36   2.0000      -0.481308       -13.0971
  37   2.0000      -0.461513       -12.5584
  38   2.0000      -0.460410       -12.5284
  39   2.0000      -0.451413       -12.2836
  40   2.0000      -0.443791       -12.0762
  41   2.0000      -0.433199       -11.7879
  42   2.0000      -0.422296       -11.4913
  43   2.0000      -0.416424       -11.3315
  44   2.0000      -0.412579       -11.2268
  45   2.0000      -0.399454       -10.8697
  46   2.0000      -0.392703       -10.6860
  47   2.0000      -0.382256       -10.4017
  48   2.0000      -0.374075       -10.1791
  49   2.0000      -0.371160       -10.0998
  50   2.0000      -0.358909        -9.7664
  51   2.0000      -0.350434        -9.5358
  52   2.0000      -0.345252        -9.3948
  53   2.0000      -0.334626        -9.1056
  54   2.0000      -0.332427        -9.0458
  55   2.0000      -0.323546        -8.8041
  56   2.0000      -0.315299        -8.5797
  57   2.0000      -0.307821        -8.3762
  58   2.0000      -0.299077        -8.1383
  59   2.0000      -0.267001        -7.2655
  60   2.0000      -0.247683        -6.7398
  61   2.0000      -0.241049        -6.5593
  62   2.0000      -0.239041        -6.5046
  63   2.0000      -0.216068        -5.8795
  64   0.0000      -0.065687        -1.7874
  65   0.0000      -0.038724        -1.0537
  66   0.0000      -0.034752        -0.9456
  67   0.0000      -0.028347        -0.7714
  68   0.0000      -0.000649        -0.0177

MULLIKEN ATOMIC CHARGES
-----------------------
   0 C :   -0.517678
   1 C :   -0.059434
   2 H :    0.166575
   3 C :    0.155890
   4 C :   -0.225655
   5 C :   -0.194938
   6 C :    0.057920
   7 C :    0.311073
   8 C :   -0.355299
   9 F :   -0.241118
  10 C :    0.107566
  11 C :   -0.208068
  12 C :   -0.170005
  13 C :   -0.136396
  14 C :   -0.171395
  15 C :   -0.181889
  16 C :    0.337592
  17 O :   -0.398914
  18 O :   -0.333009
  19 H :    0.168499
  20 H :    0.155946
  21 H :    0.179212
  22 H :    0.155569
  23 H :    0.154363
  24 H :    0.166129
  25 H :    0.152551
  26 H :    0.145823
  27 H :    0.146839
  28 H :    0.145784
  29 H :    0.155260
  30 H :    0.331207
Sum of atomic charges:   -0.0000000

LOEWDIN ATOMIC CHARGES
----------------------
   0 C :   -0.378940
   1 C :   -0.145359
   2 H :    0.187191
   3 C :   -0.061534
   4 C :   -0.145976
   5 C :   -0.126647
   6 C :   -0.062628
   7 C :    0.236938
   8 C :   -0.134832
   9 F :   -0.288962
  10 C :   -0.062701
  11 C :   -0.145780
  12 C :   -0.160222
  13 C :   -0.163344
  14 C :   -0.159094
  15 C :   -0.132716
  16 C :    0.356012
  17 O :   -0.417865
  18 O :   -0.392910
  19 H :    0.162791
  20 H :    0.160891
  21 H :    0.173801
  22 H :    0.179764
  23 H :    0.177745
  24 H :    0.187142
  25 H :    0.174162
  26 H :    0.168040
  27 H :    0.167268
  28 H :    0.168292
  29 H :    0.177701
  30 H :    0.301771

  Mayer bond orders larger than 0.100000
B(  0-C ,  1-C ) :   0.8747 B(  0-C , 19-H ) :   0.9862 B(  0-C , 20-H ) :   0.9693
B(  0-C , 21-H ) :   0.9610 B(  1-C ,  2-H ) :   0.9827 B(  1-C ,  3-C ) :   0.8334
B(  1-C , 16-C ) :   0.9522 B(  3-C ,  4-C ) :   1.3903 B(  3-C ,  6-C ) :   0.1047
B(  3-C ,  8-C ) :   1.3699 B(  4-C ,  5-C ) :   1.4385 B(  4-C , 22-H ) :   0.9368
B(  5-C ,  6-C ) :   1.3517 B(  5-C , 23-H ) :   0.9423 B(  6-C ,  7-C ) :   1.4514
B(  6-C , 10-C ) :   0.7823 B(  7-C ,  8-C ) :   1.3914 B(  7-C ,  9-F ) :   0.8917
B(  8-C , 24-H ) :   0.9206 B( 10-C , 11-C ) :   1.3916 B( 10-C , 15-C ) :   1.4190
B( 11-C , 12-C ) :   1.4363 B( 11-C , 25-H ) :   0.9419 B( 12-C , 13-C ) :   1.4159
B( 12-C , 26-H ) :   0.9493 B( 13-C , 14-C ) :   1.4125 B( 13-C , 27-H ) :   0.9463
B( 14-C , 15-C ) :   1.4385 B( 14-C , 28-H ) :   0.9507 B( 15-C , 29-H ) :   0.9369
B( 16-C , 17-O ) :   1.9290 B( 16-C , 18-O ) :   1.0431 B( 18-O , 30-H ) :   0.8590

Dispersion correction           -0.013432104
FINAL SINGLE POINT ENERGY      -829.577325013361

DIPOLE MOMENT
-------------

Method             : SCF
Type of density    : Electron Density
Multiplicity       :   1
Irrep              :   0
Energy             :  -829.5745323431474390 Eh
Relativity type    :
Basis              : AO
                                X                 Y                 Z
Electronic contribution:      1.852536716       3.454142865      -7.517929702
Nuclear contribution   :     -1.963166807      -3.216323956       7.547497358
                        -----------------------------------------
Total Dipole Moment    :     -0.110630092       0.237818909       0.029567656
                        -----------------------------------------
Magnitude (a.u.)       :      0.263952831
Magnitude (Debye)      :      0.670914777

Rotational constants in cm-1:             0.036651             0.006478             0.006171
Rotational constants in MHz :          1098.760131           194.209870           184.989616

                             ****ORCA TERMINATED NORMALLY****
TOTAL RUN TIME: 0 days 0 hours 1 minutes 1 seconds 972 msec
