                         Program Version 6.0.1  -  RELEASE   -
|  1> ! r2scan-3c def2/J RI DEFGRID2 scfconv6 printgap
|  2> %output
|  3>     printlevel normal
|  4> end
|  5> %cpcm
|  6>     smd true
|  7>     smdsolvent "water"
|  8> end
|  9> * xyz 0 1
| 10> C -3.9179538908 0.1835591546 1.850366932
| 11> C -3.3305154965 0.4441929495 0.4654256403
| 12> H -3.599329718 1.4419473342 0.1119114465
| 13> C -1.8248082093 0.3002862699 0.4078078431
| 14> C -1.1605939897 -0.7109775539 1.0915903072
| 15> C 0.2122144851 -0.8366153804 1.0054723349
| 16> C 0.9807259633 0.0339630606 0.2334412662
| 17> C 0.2871165373 1.0255857259 -0.4526113282
| 18> C -1.0833010684 1.1680047451 -0.3835560336
| 19> F 0.9662337492 1.8920772976 -1.2615801001
| 20> C 2.442634209 -0.1111691507 0.1532357961
| 21> C 3.0087155718 -1.3749956272 -0.001022087
| 22> C 4.3811134956 -1.5242053115 -0.0713535225
| 23> C 5.2074583758 -0.4157465332 0.0164429381
| 24> C 4.6533438142 0.84354904 0.173648512
| 25> C 3.2805713398 0.9974663592 0.2406694474
| 26> C -3.8495084689 -0.5588660434 -0.5505314675
| 27> O -4.0972625919 -1.7192350875 -0.31318886
| 28> O -3.9584426531 -0.0286235685 -1.7563833843
| 29> H -3.3383630087 0.7048186857 2.606138129
| 30> H -4.9458292253 0.5340089968 1.8878283083
| 31> H -3.9168732727 -0.8816142593 2.0656829961
| 32> H -1.719493326 -1.4094659179 1.6921395633
| 33> H 0.712848687 -1.6161973397 1.5578007595
| 34> H -1.5581184656 1.9518360499 -0.9524811526
| 35> H 2.3660913565 -2.2384480943 -0.0862299759
| 36> H 4.8076090521 -2.5079564203 -0.1969314688
| 37> H 6.2790087429 -0.5327403382 -0.0385162549
| 38> H 5.2918601188 1.7111151679 0.2449282419
| 39> H 2.8570438704 1.9818877254 0.3729413405
| 40> H -4.2476227103 -0.6713240965 -2.4335527371
| 41> *
| 42>
| 43>                          ****END OF INPUT****

CARTESIAN COORDINATES (ANGSTROEM)
---------------------------------
  C     -3.917954    0.183559    1.850367
  C     -3.330515    0.444193    0.465426
  H     -3.599330    1.441947    0.111911
  C     -1.824808    0.300286    0.407808
  C     -1.160594   -0.710978    1.091590
  C      0.212214   -0.836615    1.005472
  C      0.980726    0.033963    0.233441
  C      0.287117    1.025586   -0.452611
  C     -1.083301    1.168005   -0.383556
  F      0.966234    1.892077   -1.261580
  C      2.442634   -0.111169    0.153236
  C      3.008716   -1.374996   -0.001022
  C      4.381113   -1.524205   -0.071354
  C      5.207458   -0.415747    0.016443
  C      4.653344    0.843549    0.173649
  C      3.280571    0.997466    0.240669
  C     -3.849508   -0.558866   -0.550531
  O     -4.097263   -1.719235   -0.313189
  O     -3.958443   -0.028624   -1.756383
  H     -3.338363    0.704819    2.606138
  H     -4.945829    0.534009    1.887828
  H     -3.916873   -0.881614    2.065683
  H     -1.719493   -1.409466    1.692140
  H      0.712849   -1.616197    1.557801
  H     -1.558118    1.951836   -0.952481
  H      2.366091   -2.238448   -0.086230
  H      4.807609   -2.507956   -0.196931
  H      6.279009   -0.532740   -0.038516
  H      5.291860    1.711115    0.244928
  H      2.857044    1.981888    0.372941
  H     -4.247623   -0.671324   -2.433553

 Total Charge           Charge          ....    0
 Multiplicity           Mult            ....    1
 Number of Electrons    NEL             ....  128
 Basis Dimension        Dim             ....  422

ORBITAL ENERGIES
----------------

  NO   OCC          E(Eh)            E(eV)
   0   2.0000     -24.502228      -666.7395
   1   2.0000     -19.004526      -517.1394
   2   2.0000     -18.948836      -515.6240
   3   2.0000     -10.172162      -276.7986
   4   2.0000     -10.124657      -275.5059
   5   2.0000     -10.059544      -273.7341
   6   2.0000     -10.058299      -273.7002
   7   2.0000     -10.056593      -273.6538
   8   2.0000     -10.052455      -273.5412
   9   2.0000     -10.044211      -273.3169
  10   2.0000     -10.043037      -273.2849
  11   2.0000     -10.037168      -273.1252
  12   2.0000     -10.036683      -273.1120
  13   2.0000     -10.036384      -273.1039
  14   2.0000     -10.035368      -273.0762
  15   2.0000     -10.035129      -273.0697
  16   2.0000     -10.034369      -273.0491
  17   2.0000     -10.021057      -272.6868
  18   2.0000      -1.186286       -32.2805
  19   2.0000      -1.082979       -29.4694
  20   2.0000      -0.991913       -26.9913
  21   2.0000      -0.852564       -23.1994
  22   2.0000      -0.830415       -22.5967
  23   2.0000      -0.785485       -21.3741
  24   2.0000      -0.741497       -20.1772
  25   2.0000      -0.724885       -19.7251
  26   2.0000      -0.718330       -19.5467
  27   2.0000      -0.691266       -18.8103
  28   2.0000      -0.647841       -17.6287
  29   2.0000      -0.607525       -16.5316
  30   2.0000      -0.597404       -16.2562
  31   2.0000      -0.571475       -15.5506
  32   2.0000      -0.564997       -15.3744
  33   2.0000      -0.551092       -14.9960
  34   2.0000      -0.508880       -13.8473
  35   2.0000      -0.490253       -13.3405
  36   2.0000      -0.478308       -13.0154
  37   2.0000      -0.461865       -12.5680
  38   2.0000      -0.457438       -12.4475
  39   2.0000      -0.453984       -12.3535
  40   2.0000      -0.440739       -11.9931
  41   2.0000      -0.435697       -11.8559
  42   2.0000      -0.420142       -11.4327
  43   2.0000      -0.414826       -11.2880
  44   2.0000      -0.406592       -11.0639
  45   2.0000      -0.393515       -10.7081
  46   2.0000      -0.388565       -10.5734
  47   2.0000      -0.380452       -10.3526
  48   2.0000      -0.370717       -10.0877
  49   2.0000      -0.367713       -10.0060
  50   2.0000      -0.357976        -9.7410
  51   2.0000      -0.346598        -9.4314
  52   2.0000      -0.340657        -9.2697
  53   2.0000      -0.332695        -9.0531
  54   2.0000      -0.326944        -8.8966
  55   2.0000      -0.315874        -8.5954
  56   2.0000      -0.310752        -8.4560
  57   2.0000      -0.304987        -8.2991
  58   2.0000      -0.302576        -8.2335
  59   2.0000      -0.269366        -7.3298
  60   2.0000      -0.253041        -6.8856
  61   2.0000      -0.242592        -6.6013
  62   2.0000      -0.239153        -6.5077
  63   2.0000      -0.216831        -5.9003
  64   0.0000      -0.065396        -1.7795
  65   0.0000      -0.037467        -1.0195
  66   0.0000      -0.035354        -0.9620
  67   0.0000      -0.029412        -0.8003
  68   0.0000      -0.000974        -0.0265

MULLIKEN ATOMIC CHARGES
-----------------------
   0 C :   -0.554736
   1 C :   -0.021761
   2 H :    0.196371
   3 C :    0.135253
   4 C :   -0.271330
   5 C :   -0.214875
   6 C :    0.068207
   7 C :    0.316214
   8 C :   -0.373036
   9 F :   -0.250318
  10 C :    0.064260
  11 C :   -0.212524
  12 C :   -0.212598
  13 C :   -0.163649
  14 C :   -0.210039
  15 C :   -0.213958
  16 C :    0.352017
  17 O :   -0.477515
  18 O :   -0.354196
  19 H :    0.182351
  20 H :    0.177902
  21 H :    0.177138
  22 H :    0.189083
  23 H :    0.186326
  24 H :    0.199872
  25 H :    0.184156
  26 H :    0.178860
  27 H :    0.180386
  28 H :    0.178702
  29 H :    0.183133
  30 H :    0.380304
Sum of atomic charges:   -0.0000000

LOEWDIN ATOMIC CHARGES
----------------------
   0 C :   -0.381949
   1 C :   -0.140605
   2 H :    0.199883
   3 C :   -0.062939
   4 C :   -0.154049
   5 C :   -0.128534
   6 C :   -0.069553
   7 C :    0.229402
   8 C :   -0.135113
   9 F :   -0.299984
  10 C :   -0.074621
  11 C :   -0.149654
  12 C :   -0.167853
  13 C :   -0.171809
  14 C :   -0.168309
  15 C :   -0.146720
  16 C :    0.365242
  17 O :   -0.475808
  18 O :   -0.381286
  19 H :    0.168070
  20 H :    0.167370
  21 H :    0.171546
  22 H :    0.188688
  23 H :    0.189228
  24 H :    0.199282
  25 H :    0.185257
  26 H :    0.179404
  27 H :    0.178305
  28 H :    0.179361
  29 H :    0.185425
  30 H :    0.322324

  Mayer bond orders larger than 0.100000
B(  0-C ,  1-C ) :   0.8503 B(  0-C , 19-H ) :   0.9815 B(  0-C , 20-H ) :   0.9681
B(  0-C , 21-H ) :   0.9611 B(  1-C ,  2-H ) :   0.9701 B(  1-C ,  3-C ) :   0.8308
B(  1-C , 16-C ) :   0.9567 B(  3-C ,  4-C ) :   1.3431 B(  3-C ,  8-C ) :   1.3808
B(  4-C ,  5-C ) :   1.4538 B(  4-C , 22-H ) :   0.9406 B(  5-C ,  6-C ) :   1.3379
B(  5-C , 23-H ) :   0.9427 B(  6-C ,  7-C ) :   1.4251 B(  6-C , 10-C ) :   0.7665
B(  7-C ,  8-C ) :   1.3615 B(  7-C ,  9-F ) :   0.8911 B(  8-C , 24-H ) :   0.9287
B( 10-C , 11-C ) :   1.3695 B( 10-C , 15-C ) :   1.3779 B( 11-C , 12-C ) :   1.4138
B( 11-C , 25-H ) :   0.9465 B( 12-C , 13-C ) :   1.3797 B( 12-C , 26-H ) :   0.9589
B( 13-C , 14-C ) :   1.3790 B( 13-C , 27-H ) :   0.9523 B( 14-C , 15-C ) :   1.4133
B( 14-C , 28-H ) :   0.9594 B( 15-C , 29-H ) :   0.9465 B( 16-C , 17-O ) :   1.8663
B( 16-C , 18-O ) :   1.0790 B( 18-O , 30-H ) :   0.8348

Dispersion correction           -0.013432104
FINAL SINGLE POINT ENERGY      -829.590504220670

DIPOLE MOMENT
-------------

Method             : SCF
Type of density    : Electron Density
Multiplicity       :   1
Irrep              :   0
Energy             :  -829.5877115504561061 Eh
Relativity type    :
Basis              : AO
                                X                 Y                 Z
Electronic contribution:      1.753640190       3.614579110      -7.519969315
Nuclear contribution   :     -1.963166807      -3.216323956       7.547497358
                        -----------------------------------------
Total Dipole Moment    :     -0.209526617       0.398255154       0.027528043
                        -----------------------------------------
Magnitude (a.u.)       :      0.450850712
Magnitude (Debye)      :      1.145971437

Rotational constants in cm-1:             0.036651             0.006478             0.006171
Rotational constants in MHz :          1098.760131           194.209870           184.989616

                             ****ORCA TERMINATED NORMALLY****
TOTAL RUN TIME: 0 days 0 hours 1 minutes 36 seconds 954 msec
