                         Program Version 6.0.0  -   RELEASE  -
|  1> ! r2scan-3c def2/J RI DEFGRID2 scfconv6 printgap
|  2> %output
|  3>     printlevel normal
|  4> end
|  5> * xyz 0 1
|  6> C -3.2566984432 -1.1744223754 0.3179242839
|  7> C -1.7575728387 -0.8990283658 0.3113544285
|  8> C -1.4625275934 0.5086737016 -0.1981698334
|  9> C -0.0012350139 0.872243004 -0.2332158014
| 10> O 0.4106045446 1.9696330741 -0.5614375187
| 11> O 0.7956775735 -0.1211375263 0.1225025682
| 12> C 2.2143590132 0.1117127596 0.1138968445
| 13> C 2.9179232015 -1.2319161622 0.1244035187
| 14> H -3.453916766 -2.1782684063 0.6835956354
| 15> H -3.7727271926 -0.4661930962 0.9615573752
| 16> H -3.6657080767 -1.0871685602 -0.6856416333
| 17> H -1.2522437054 -1.6269214559 -0.3242523795
| 18> H -1.358621849 -1.0085844886 1.320602544
| 19> H -1.9630852115 1.2570159439 0.4210135081
| 20> H -1.8456013427 0.637051393 -1.213758459
| 21> H 2.4650338668 0.6998920021 -0.7750182058
| 22> H 2.4666001845 0.7039460232 0.9993759959
| 23> H 2.6533851365 -1.8003838787 -0.7623624375
| 24> H 3.9912152288 -1.074128791 0.1407489429
| 25> H 2.6242829224 -1.797134051 1.00373573
| 26> *
| 27>
| 28>                          ****END OF INPUT****

CARTESIAN COORDINATES (ANGSTROEM)
---------------------------------
  C     -3.256698   -1.174422    0.317924
  C     -1.757573   -0.899028    0.311354
  C     -1.462528    0.508674   -0.198170
  C     -0.001235    0.872243   -0.233216
  O      0.410605    1.969633   -0.561438
  O      0.795678   -0.121138    0.122503
  C      2.214359    0.111713    0.113897
  C      2.917923   -1.231916    0.124404
  H     -3.453917   -2.178268    0.683596
  H     -3.772727   -0.466193    0.961557
  H     -3.665708   -1.087169   -0.685642
  H     -1.252244   -1.626921   -0.324252
  H     -1.358622   -1.008584    1.320603
  H     -1.963085    1.257016    0.421014
  H     -1.845601    0.637051   -1.213758
  H      2.465034    0.699892   -0.775018
  H      2.466600    0.703946    0.999376
  H      2.653385   -1.800384   -0.762362
  H      3.991215   -1.074129    0.140749
  H      2.624283   -1.797134    1.003736

 Total Charge           Charge          ....    0
 Multiplicity           Mult            ....    1
 Number of Electrons    NEL             ....   64
 Basis Dimension        Dim             ....  222

ORBITAL ENERGIES
----------------

  NO   OCC          E(Eh)            E(eV)
   0   2.0000     -18.998010      -516.9621
   1   2.0000     -18.922825      -514.9162
   2   2.0000     -10.150575      -276.2112
   3   2.0000     -10.091995      -274.6171
   4   2.0000     -10.042236      -273.2631
   5   2.0000     -10.032861      -273.0080
   6   2.0000     -10.031870      -272.9811
   7   2.0000     -10.021340      -272.6945
   8   2.0000      -1.072528       -29.1850
   9   2.0000      -0.970855       -26.4183
  10   2.0000      -0.775444       -21.1009
  11   2.0000      -0.742059       -20.1924
  12   2.0000      -0.680547       -18.5186
  13   2.0000      -0.614435       -16.7196
  14   2.0000      -0.569890       -15.5075
  15   2.0000      -0.535266       -14.5653
  16   2.0000      -0.470815       -12.8115
  17   2.0000      -0.459806       -12.5120
  18   2.0000      -0.441500       -12.0138
  19   2.0000      -0.429392       -11.6844
  20   2.0000      -0.395823       -10.7709
  21   2.0000      -0.387707       -10.5500
  22   2.0000      -0.375650       -10.2220
  23   2.0000      -0.364110        -9.9079
  24   2.0000      -0.355670        -9.6783
  25   2.0000      -0.336505        -9.1568
  26   2.0000      -0.326163        -8.8753
  27   2.0000      -0.321229        -8.7411
  28   2.0000      -0.309088        -8.4107
  29   2.0000      -0.305104        -8.3023
  30   2.0000      -0.269003        -7.3199
  31   2.0000      -0.229635        -6.2487
  32   0.0000      -0.011786        -0.3207
  33   0.0000       0.070627         1.9219
  34   0.0000       0.095336         2.5942
  35   0.0000       0.104865         2.8535
  36   0.0000       0.118577         3.2267

MULLIKEN ATOMIC CHARGES
-----------------------
   0 C :   -0.461363
   1 C :   -0.245554
   2 C :   -0.324575
   3 C :    0.345878
   4 O :   -0.418161
   5 O :   -0.136658
   6 C :   -0.150258
   7 C :   -0.442755
   8 H :    0.148762
   9 H :    0.141775
  10 H :    0.141477
  11 H :    0.148035
  12 H :    0.147232
  13 H :    0.167924
  14 H :    0.168290
  15 H :    0.169499
  16 H :    0.148825
  17 H :    0.152336
  18 H :    0.147704
  19 H :    0.151589
Sum of atomic charges:    0.0000000

LOEWDIN ATOMIC CHARGES
----------------------
   0 C :   -0.422354
   1 C :   -0.298319
   2 C :   -0.229159
   3 C :    0.360957
   4 O :   -0.435965
   5 O :   -0.606283
   6 C :    0.036132
   7 C :   -0.386819
   8 H :    0.151940
   9 H :    0.150498
  10 H :    0.150449
  11 H :    0.161146
  12 H :    0.160135
  13 H :    0.183342
  14 H :    0.183758
  15 H :    0.186565
  16 H :    0.176301
  17 H :    0.158859
  18 H :    0.159759
  19 H :    0.159057

  Mayer bond orders larger than 0.100000
B(  0-C ,  1-C ) :   0.8906 B(  0-C ,  8-H ) :   0.9751 B(  0-C ,  9-H ) :   0.9820
B(  0-C , 10-H ) :   0.9827 B(  1-C ,  2-C ) :   0.9356 B(  1-C , 11-H ) :   0.9650
B(  1-C , 12-H ) :   0.9666 B(  2-C ,  3-C ) :   1.0139 B(  2-C , 13-H ) :   0.9541
B(  2-C , 14-H ) :   0.9430 B(  3-C ,  4-O ) :   1.8434 B(  3-C ,  5-O ) :   1.1040
B(  5-O ,  6-C ) :   0.7933 B(  6-C ,  7-C ) :   0.9482 B(  6-C , 15-H ) :   0.9618
B(  6-C , 16-H ) :   0.9444 B(  7-C , 17-H ) :   0.9746 B(  7-C , 18-H ) :   0.9680
B(  7-C , 19-H ) :   0.9688

Dispersion correction           -0.004909985
FINAL SINGLE POINT ENERGY      -386.234487911190

DIPOLE MOMENT
-------------

Method             : SCF
Type of density    : Electron Density
Multiplicity       :   1
Irrep              :   0
Energy             :  -386.2412774102221533 Eh
Relativity type    :
Basis              : AO
                                X                 Y                 Z
Electronic contribution:      2.993459539       6.329817187      -1.392806253
Nuclear contribution   :     -2.901112535      -7.234823564       1.653668015
                        -----------------------------------------
Total Dipole Moment    :      0.092347004      -0.905006377       0.260861762
                        -----------------------------------------
Magnitude (a.u.)       :      0.946368517
Magnitude (Debye)      :      2.405477605

Rotational constants in cm-1:             0.109306             0.035906             0.027830
Rotational constants in MHz :          3276.900148          1076.425132           834.309757

                             ****ORCA TERMINATED NORMALLY****
TOTAL RUN TIME: 0 days 0 hours 0 minutes 29 seconds 474 msec
