                         Program Version 6.0.0  -   RELEASE  -
|  1> ! r2scan-3c def2/J RI DEFGRID2 scfconv6 printgap
|  2> %output
|  3>     printlevel normal
|  4> end
|  5> %cpcm
|  6>     smd true
|  7>     smdsolvent "water"
|  8> end
|  9> * xyz 0 1
| 10> C -3.2566984432 -1.1744223754 0.3179242839
| 11> C -1.7575728387 -0.8990283658 0.3113544285
| 12> C -1.4625275934 0.5086737016 -0.1981698334
| 13> C -0.0012350139 0.872243004 -0.2332158014
| 14> O 0.4106045446 1.9696330741 -0.5614375187
| 15> O 0.7956775735 -0.1211375263 0.1225025682
| 16> C 2.2143590132 0.1117127596 0.1138968445
| 17> C 2.9179232015 -1.2319161622 0.1244035187
| 18> H -3.453916766 -2.1782684063 0.6835956354
| 19> H -3.7727271926 -0.4661930962 0.9615573752
| 20> H -3.6657080767 -1.0871685602 -0.6856416333
| 21> H -1.2522437054 -1.6269214559 -0.3242523795
| 22> H -1.358621849 -1.0085844886 1.320602544
| 23> H -1.9630852115 1.2570159439 0.4210135081
| 24> H -1.8456013427 0.637051393 -1.213758459
| 25> H 2.4650338668 0.6998920021 -0.7750182058
| 26> H 2.4666001845 0.7039460232 0.9993759959
| 27> H 2.6533851365 -1.8003838787 -0.7623624375
| 28> H 3.9912152288 -1.074128791 0.1407489429
| 29> H 2.6242829224 -1.797134051 1.00373573
| 30> *
| 31>
| 32>                          ****END OF INPUT****

CARTESIAN COORDINATES (ANGSTROEM)
---------------------------------
  C     -3.256698   -1.174422    0.317924
  C     -1.757573   -0.899028    0.311354
  C     -1.462528    0.508674   -0.198170
  C     -0.001235    0.872243   -0.233216
  O      0.410605    1.969633   -0.561438
  O      0.795678   -0.121138    0.122503
  C      2.214359    0.111713    0.113897
  C      2.917923   -1.231916    0.124404
  H     -3.453917   -2.178268    0.683596
  H     -3.772727   -0.466193    0.961557
  H     -3.665708   -1.087169   -0.685642
  H     -1.252244   -1.626921   -0.324252
  H     -1.358622   -1.008584    1.320603
  H     -1.963085    1.257016    0.421014
  H     -1.845601    0.637051   -1.213758
  H      2.465034    0.699892   -0.775018
  H      2.466600    0.703946    0.999376
  H      2.653385   -1.800384   -0.762362
  H      3.991215   -1.074129    0.140749
  H      2.624283   -1.797134    1.003736

 Total Charge           Charge          ....    0
 Multiplicity           Mult            ....    1
 Number of Electrons    NEL             ....   64
 Basis Dimension        Dim             ....  222

ORBITAL ENERGIES
----------------

  NO   OCC          E(Eh)            E(eV)
   0   2.0000     -19.003591      -517.1140
   1   2.0000     -18.940199      -515.3890
   2   2.0000     -10.162092      -276.5246
   3   2.0000     -10.084061      -274.4013
   4   2.0000     -10.036025      -273.0941
   5   2.0000     -10.023405      -272.7507
   6   2.0000     -10.018843      -272.6266
   7   2.0000     -10.010125      -272.3893
   8   2.0000      -1.079836       -29.3838
   9   2.0000      -0.986050       -26.8318
  10   2.0000      -0.769487       -20.9388
  11   2.0000      -0.733196       -19.9513
  12   2.0000      -0.673452       -18.3256
  13   2.0000      -0.607209       -16.5230
  14   2.0000      -0.562854       -15.3160
  15   2.0000      -0.532906       -14.5011
  16   2.0000      -0.468722       -12.7546
  17   2.0000      -0.459277       -12.4976
  18   2.0000      -0.447340       -12.1727
  19   2.0000      -0.430914       -11.7258
  20   2.0000      -0.391944       -10.6653
  21   2.0000      -0.381289       -10.3754
  22   2.0000      -0.366414        -9.9706
  23   2.0000      -0.355312        -9.6685
  24   2.0000      -0.346701        -9.4342
  25   2.0000      -0.331710        -9.0263
  26   2.0000      -0.324453        -8.8288
  27   2.0000      -0.316993        -8.6258
  28   2.0000      -0.304372        -8.2824
  29   2.0000      -0.296380        -8.0649
  30   2.0000      -0.276192        -7.5156
  31   2.0000      -0.246887        -6.7181
  32   0.0000      -0.020233        -0.5506
  33   0.0000       0.076170         2.0727
  34   0.0000       0.105371         2.8673
  35   0.0000       0.112417         3.0590
  36   0.0000       0.126210         3.4343

MULLIKEN ATOMIC CHARGES
-----------------------
   0 C :   -0.510043
   1 C :   -0.255117
   2 C :   -0.332782
   3 C :    0.391895
   4 O :   -0.511788
   5 O :   -0.150915
   6 C :   -0.150748
   7 C :   -0.490376
   8 H :    0.159228
   9 H :    0.155800
  10 H :    0.155731
  11 H :    0.156337
  12 H :    0.157432
  13 H :    0.188953
  14 H :    0.191951
  15 H :    0.172407
  16 H :    0.172793
  17 H :    0.166038
  18 H :    0.169134
  19 H :    0.164070
Sum of atomic charges:    0.0000000

LOEWDIN ATOMIC CHARGES
----------------------
   0 C :   -0.427957
   1 C :   -0.297098
   2 C :   -0.227280
   3 C :    0.372414
   4 O :   -0.502629
   5 O :   -0.605372
   6 C :    0.038835
   7 C :   -0.389682
   8 H :    0.154655
   9 H :    0.154287
  10 H :    0.154309
  11 H :    0.162650
  12 H :    0.162104
  13 H :    0.191842
  14 H :    0.193309
  15 H :    0.188074
  16 H :    0.184312
  17 H :    0.162296
  18 H :    0.168366
  19 H :    0.162568

  Mayer bond orders larger than 0.100000
B(  0-C ,  1-C ) :   0.8854 B(  0-C ,  8-H ) :   0.9718 B(  0-C ,  9-H ) :   0.9799
B(  0-C , 10-H ) :   0.9805 B(  1-C ,  2-C ) :   0.9234 B(  1-C , 11-H ) :   0.9653
B(  1-C , 12-H ) :   0.9676 B(  2-C ,  3-C ) :   1.0195 B(  2-C , 13-H ) :   0.9437
B(  2-C , 14-H ) :   0.9308 B(  3-C ,  4-O ) :   1.7676 B(  3-C ,  5-O ) :   1.1367
B(  5-O ,  6-C ) :   0.7792 B(  6-C ,  7-C ) :   0.9479 B(  6-C , 15-H ) :   0.9565
B(  6-C , 16-H ) :   0.9356 B(  7-C , 17-H ) :   0.9731 B(  7-C , 18-H ) :   0.9616
B(  7-C , 19-H ) :   0.9660

Dispersion correction           -0.004909985
FINAL SINGLE POINT ENERGY      -386.240527892589

DIPOLE MOMENT
-------------

Method             : SCF
Type of density    : Electron Density
Multiplicity       :   1
Irrep              :   0
Energy             :  -386.2473173916209248 Eh
Relativity type    :
Basis              : AO
                                X                 Y                 Z
Electronic contribution:      2.968729342       6.022878158      -1.299093971
Nuclear contribution   :     -2.901112535      -7.234823564       1.653668015
                        -----------------------------------------
Total Dipole Moment    :      0.067616807      -1.211945406       0.354574044
                        -----------------------------------------
Magnitude (a.u.)       :      1.264557809
Magnitude (Debye)      :      3.214250510

Rotational constants in cm-1:             0.109306             0.035906             0.027830
Rotational constants in MHz :          3276.900148          1076.425132           834.309757

                             ****ORCA TERMINATED NORMALLY****
TOTAL RUN TIME: 0 days 0 hours 0 minutes 34 seconds 803 msec
