                         Program Version 6.0.0  -   RELEASE  -
|  1> ! pbe def2-sv(p) def2/J RI DEFGRID1 loosescf d4 GCP(DFT/SV(P)) printgap
|  2> %output
|  3>     printlevel normal
|  4> end
|  5> * xyz 0 1
|  6> C -2.4019673475 -1.3676471165 -0.2971517245
|  7> C -2.5425505269 0.1040630433 0.0723397263
|  8> C -1.3100147251 0.6164255668 0.8242246514
|  9> C -0.0993301031 0.6256528736 -0.0730021447
| 10> O -0.0437092134 1.1557825482 -1.1641953901
| 11> O 0.9219193 -0.0214708127 0.4701167572
| 12> C 2.150373983 -0.0852109528 -0.2740410614
| 13> C 3.1339186552 -0.9332378773 0.5085234099
| 14> H -2.2508281656 -1.9728431653 0.5934470068
| 15> H -3.2956705586 -1.7174121441 -0.8067835244
| 16> H -1.551359747 -1.5125998559 -0.9606922226
| 17> H -3.421588274 0.2419156985 0.7022346213
| 18> H -2.6704716652 0.6996153313 -0.833542213
| 19> H -1.0936971382 -0.0035141317 1.6933491269
| 20> H -1.4837502822 1.6443328266 1.147208497
| 21> H 1.9362577165 -0.5124678392 -1.2593802241
| 22> H 2.5186729599 0.9356402297 -0.4194607422
| 23> H 3.3115617935 -0.4903073105 1.4839203367
| 24> H 2.7353418489 -1.9340437088 0.6456225069
| 25> H 4.0707419325 -0.9913867992 -0.0355733595
| 26> *
| 27>
| 28>                          ****END OF INPUT****

CARTESIAN COORDINATES (ANGSTROEM)
---------------------------------
  C     -2.401967   -1.367647   -0.297152
  C     -2.542551    0.104063    0.072340
  C     -1.310015    0.616426    0.824225
  C     -0.099330    0.625653   -0.073002
  O     -0.043709    1.155783   -1.164195
  O      0.921919   -0.021471    0.470117
  C      2.150374   -0.085211   -0.274041
  C      3.133919   -0.933238    0.508523
  H     -2.250828   -1.972843    0.593447
  H     -3.295671   -1.717412   -0.806784
  H     -1.551360   -1.512600   -0.960692
  H     -3.421588    0.241916    0.702235
  H     -2.670472    0.699615   -0.833542
  H     -1.093697   -0.003514    1.693349
  H     -1.483750    1.644333    1.147208
  H      1.936258   -0.512468   -1.259380
  H      2.518673    0.935640   -0.419461
  H      3.311562   -0.490307    1.483920
  H      2.735342   -1.934044    0.645623
  H      4.070742   -0.991387   -0.035573

 Total Charge           Charge          ....    0
 Multiplicity           Mult            ....    1
 Number of Electrons    NEL             ....   64
 Basis Dimension        Dim             ....  136

ORBITAL ENERGIES
----------------

  NO   OCC          E(Eh)            E(eV)
   0   2.0000     -18.797934      -511.5178
   1   2.0000     -18.729842      -509.6649
   2   2.0000     -10.003277      -272.2030
   3   2.0000      -9.946945      -270.6701
   4   2.0000      -9.895684      -269.2752
   5   2.0000      -9.890434      -269.1324
   6   2.0000      -9.889631      -269.1106
   7   2.0000      -9.876814      -268.7618
   8   2.0000      -1.004412       -27.3315
   9   2.0000      -0.906714       -24.6730
  10   2.0000      -0.727502       -19.7963
  11   2.0000      -0.700075       -19.0500
  12   2.0000      -0.636412       -17.3176
  13   2.0000      -0.583452       -15.8765
  14   2.0000      -0.531006       -14.4494
  15   2.0000      -0.503018       -13.6878
  16   2.0000      -0.449999       -12.2451
  17   2.0000      -0.443578       -12.0704
  18   2.0000      -0.414122       -11.2688
  19   2.0000      -0.403847       -10.9892
  20   2.0000      -0.387556       -10.5459
  21   2.0000      -0.363707        -9.8970
  22   2.0000      -0.362600        -9.8668
  23   2.0000      -0.352120        -9.5817
  24   2.0000      -0.346603        -9.4315
  25   2.0000      -0.321735        -8.7549
  26   2.0000      -0.309203        -8.4138
  27   2.0000      -0.297049        -8.0831
  28   2.0000      -0.295856        -8.0506
  29   2.0000      -0.291446        -7.9307
  30   2.0000      -0.256201        -6.9716
  31   2.0000      -0.215741        -5.8706
  32   0.0000      -0.019381        -0.5274
  33   0.0000       0.036328         0.9885
  34   0.0000       0.052413         1.4262
  35   0.0000       0.075505         2.0546
  36   0.0000       0.077821         2.1176

MULLIKEN ATOMIC CHARGES
-----------------------
   0 C :   -0.288958
   1 C :   -0.199943
   2 C :   -0.120049
   3 C :    0.088537
   4 O :   -0.216352
   5 O :   -0.236288
   6 C :   -0.031026
   7 C :   -0.271109
   8 H :    0.098496
   9 H :    0.107782
  10 H :    0.115648
  11 H :    0.091216
  12 H :    0.108510
  13 H :    0.091703
  14 H :    0.112777
  15 H :    0.105308
  16 H :    0.104310
  17 H :    0.114380
  18 H :    0.114304
  19 H :    0.110755
Sum of atomic charges:   -0.0000000

LOEWDIN ATOMIC CHARGES
----------------------
   0 C :   -0.342389
   1 C :   -0.227473
   2 C :   -0.247129
   3 C :    0.034083
   4 O :   -0.173484
   5 O :   -0.068616
   6 C :   -0.109077
   7 C :   -0.350592
   8 H :    0.117087
   9 H :    0.121638
  10 H :    0.120254
  11 H :    0.117814
  12 H :    0.124912
  13 H :    0.126121
  14 H :    0.142164
  15 H :    0.115864
  16 H :    0.116016
  17 H :    0.126396
  18 H :    0.126322
  19 H :    0.130089

  Mayer bond orders larger than 0.100000
B(  0-C ,  1-C ) :   1.1546 B(  0-C ,  8-H ) :   0.9537 B(  0-C ,  9-H ) :   0.9522
B(  0-C , 10-H ) :   0.9494 B(  1-C ,  2-C ) :   1.1122 B(  1-C , 11-H ) :   0.9282
B(  1-C , 12-H ) :   0.9193 B(  2-C ,  3-C ) :   1.0256 B(  2-C , 13-H ) :   0.9109
B(  2-C , 14-H ) :   0.8920 B(  3-C ,  4-O ) :   2.0387 B(  3-C ,  5-O ) :   1.2187
B(  5-O ,  6-C ) :   0.9118 B(  6-C ,  7-C ) :   1.1501 B(  6-C , 15-H ) :   0.9302
B(  6-C , 16-H ) :   0.9328 B(  7-C , 17-H ) :   0.9496 B(  7-C , 18-H ) :   0.9504
B(  7-C , 19-H ) :   0.9447

Dispersion correction           -0.014877593
FINAL SINGLE POINT ENERGY      -385.458290915816

DIPOLE MOMENT
-------------

Method             : SCF
Type of density    : Electron Density
Multiplicity       :   1
Irrep              :   0
Energy             :  -385.5332369603363531 Eh
Relativity type    :
Basis              : AO
                                X                 Y                 Z
Electronic contribution:      1.382149963       4.841853962      -1.288616437
Nuclear contribution   :     -1.107889550      -5.249176403       1.819461329
                        -----------------------------------------
Total Dipole Moment    :      0.274260414      -0.407322441       0.530844892
                        -----------------------------------------
Magnitude (a.u.)       :      0.723136671
Magnitude (Debye)      :      1.838067343

Rotational constants in cm-1:             0.128203             0.034644             0.031819
Rotational constants in MHz :          3843.420782          1038.609094           953.897039

                             ****ORCA TERMINATED NORMALLY****
TOTAL RUN TIME: 0 days 0 hours 0 minutes 10 seconds 562 msec
