                         Program Version 6.0.0  -   RELEASE  -
|  1> ! pbe def2-sv(p) def2/J RI DEFGRID1 loosescf d4 GCP(DFT/SV(P)) printgap
|  2> %output
|  3>     printlevel normal
|  4> end
|  5> * xyz 0 1
|  6> C -4.46067611 -1.1923582719 0.2583269373
|  7> C -3.6893848406 -2.3202912071 0.0140708959
|  8> C -2.3273766903 -2.1972169926 -0.1880595871
|  9> C -1.7102176668 -0.948676939 -0.1447234365
| 10> C -2.489350983 0.1868443356 0.1027525773
| 11> C -3.8626928393 0.0527131416 0.2999723717
| 12> C -1.8762262578 1.5195305712 0.1549518683
| 13> O -2.5525347564 2.5310055354 0.3341857571
| 14> C -0.4132768677 1.5844465235 -0.0043688352
| 15> C 0.1731212439 2.8312016862 0.1247090715
| 16> C 1.5518695007 2.9781683996 -0.0066820265
| 17> C 2.3388304119 1.888475282 -0.2615980138
| 18> C 1.7876106295 0.5897551257 -0.3946602973
| 19> C 0.3703003557 0.4353819996 -0.2681154965
| 20> C -0.2542898845 -0.8642363089 -0.3773468391
| 21> O 0.3676151749 -1.9079126431 -0.6490316047
| 22> N 2.5569648225 -0.4660615551 -0.6787800995
| 23> C 3.9890502132 -0.5806257128 -0.5817450235
| 24> C 4.3595857857 -1.7831840773 0.2891394118
| 25> O 3.9894715791 -1.4939104905 1.6228564885
| 26> H -5.5237483517 -1.2853581713 0.4151914005
| 27> H -4.1511845356 -3.294598984 -0.0195401324
| 28> H -1.7111164205 -3.0622786846 -0.3834497118
| 29> H -4.4375577245 0.9478475273 0.4862577372
| 30> H -0.4639568044 3.6790659422 0.3242564912
| 31> H 1.995590751 3.9570064988 0.0856261545
| 32> H 3.4002442224 2.0229005579 -0.3840795649
| 33> H 2.0489492685 -1.3464712046 -0.7651781778
| 34> H 4.4151526052 0.3098604919 -0.1216180907
| 35> H 4.4175777006 -0.7195384293 -1.5792285364
| 36> H 5.4413121629 -1.9536155001 0.2194364851
| 37> H 3.8316365773 -2.6746370243 -0.072974238
| 38> H 4.1736953953 -2.2578954974 2.1836501891
| 39> *
| 40>
| 41>                          ****END OF INPUT****

CARTESIAN COORDINATES (ANGSTROEM)
---------------------------------
  C     -4.460676   -1.192358    0.258327
  C     -3.689385   -2.320291    0.014071
  C     -2.327377   -2.197217   -0.188060
  C     -1.710218   -0.948677   -0.144723
  C     -2.489351    0.186844    0.102753
  C     -3.862693    0.052713    0.299972
  C     -1.876226    1.519531    0.154952
  O     -2.552535    2.531006    0.334186
  C     -0.413277    1.584447   -0.004369
  C      0.173121    2.831202    0.124709
  C      1.551870    2.978168   -0.006682
  C      2.338830    1.888475   -0.261598
  C      1.787611    0.589755   -0.394660
  C      0.370300    0.435382   -0.268115
  C     -0.254290   -0.864236   -0.377347
  O      0.367615   -1.907913   -0.649032
  N      2.556965   -0.466062   -0.678780
  C      3.989050   -0.580626   -0.581745
  C      4.359586   -1.783184    0.289139
  O      3.989472   -1.493910    1.622856
  H     -5.523748   -1.285358    0.415191
  H     -4.151185   -3.294599   -0.019540
  H     -1.711116   -3.062279   -0.383450
  H     -4.437558    0.947848    0.486258
  H     -0.463957    3.679066    0.324256
  H      1.995591    3.957006    0.085626
  H      3.400244    2.022901   -0.384080
  H      2.048949   -1.346471   -0.765178
  H      4.415153    0.309860   -0.121618
  H      4.417578   -0.719538   -1.579229
  H      5.441312   -1.953616    0.219436
  H      3.831637   -2.674637   -0.072974
  H      4.173695   -2.257895    2.183650

 Total Charge           Charge          ....    0
 Multiplicity           Mult            ....    1
 Number of Electrons    NEL             ....  140
 Basis Dimension        Dim             ....  306

ORBITAL ENERGIES
----------------

  NO   OCC          E(Eh)            E(eV)
   0   2.0000     -18.755683      -510.3681
   1   2.0000     -18.743852      -510.0462
   2   2.0000     -18.737498      -509.8732
   3   2.0000     -14.013186      -381.3182
   4   2.0000      -9.972367      -271.3619
   5   2.0000      -9.969051      -271.2717
   6   2.0000      -9.954202      -270.8676
   7   2.0000      -9.949701      -270.7451
   8   2.0000      -9.936975      -270.3988
   9   2.0000      -9.909223      -269.6437
  10   2.0000      -9.906773      -269.5770
  11   2.0000      -9.906437      -269.5679
  12   2.0000      -9.905943      -269.5544
  13   2.0000      -9.905144      -269.5327
  14   2.0000      -9.904284      -269.5093
  15   2.0000      -9.904194      -269.5068
  16   2.0000      -9.901402      -269.4308
  17   2.0000      -9.900914      -269.4176
  18   2.0000      -9.900237      -269.3991
  19   2.0000      -9.889866      -269.1169
  20   2.0000      -0.936093       -25.4724
  21   2.0000      -0.932448       -25.3732
  22   2.0000      -0.929915       -25.3043
  23   2.0000      -0.867894       -23.6166
  24   2.0000      -0.792618       -21.5682
  25   2.0000      -0.777164       -21.1477
  26   2.0000      -0.720576       -19.6079
  27   2.0000      -0.704643       -19.1743
  28   2.0000      -0.683933       -18.6108
  29   2.0000      -0.679209       -18.4822
  30   2.0000      -0.651969       -17.7410
  31   2.0000      -0.604147       -16.4397
  32   2.0000      -0.592110       -16.1121
  33   2.0000      -0.578205       -15.7338
  34   2.0000      -0.561402       -15.2765
  35   2.0000      -0.535134       -14.5617
  36   2.0000      -0.519692       -14.1415
  37   2.0000      -0.493188       -13.4203
  38   2.0000      -0.488707       -13.2984
  39   2.0000      -0.484412       -13.1815
  40   2.0000      -0.456227       -12.4146
  41   2.0000      -0.445091       -12.1115
  42   2.0000      -0.431009       -11.7284
  43   2.0000      -0.421839       -11.4788
  44   2.0000      -0.417543       -11.3619
  45   2.0000      -0.405886       -11.0447
  46   2.0000      -0.402455       -10.9514
  47   2.0000      -0.391406       -10.6507
  48   2.0000      -0.387299       -10.5390
  49   2.0000      -0.384462       -10.4618
  50   2.0000      -0.378343       -10.2952
  51   2.0000      -0.372181       -10.1276
  52   2.0000      -0.363624        -9.8947
  53   2.0000      -0.356343        -9.6966
  54   2.0000      -0.352931        -9.6037
  55   2.0000      -0.343869        -9.3572
  56   2.0000      -0.333690        -9.0802
  57   2.0000      -0.325997        -8.8708
  58   2.0000      -0.317322        -8.6348
  59   2.0000      -0.312160        -8.4943
  60   2.0000      -0.303977        -8.2716
  61   2.0000      -0.295185        -8.0324
  62   2.0000      -0.275956        -7.5091
  63   2.0000      -0.244592        -6.6557
  64   2.0000      -0.237321        -6.4578
  65   2.0000      -0.236838        -6.4447
  66   2.0000      -0.228772        -6.2252
  67   2.0000      -0.213199        -5.8014
  68   2.0000      -0.200663        -5.4603
  69   2.0000      -0.182641        -4.9699
  70   0.0000      -0.120991        -3.2923
  71   0.0000      -0.073931        -2.0118
  72   0.0000      -0.046743        -1.2719
  73   0.0000      -0.026131        -0.7111
  74   0.0000       0.017124         0.4660

MULLIKEN ATOMIC CHARGES
-----------------------
   0 C :   -0.022111
   1 C :   -0.017071
   2 C :   -0.134074
   3 C :    0.052733
   4 C :    0.037539
   5 C :   -0.126304
   6 C :    0.085554
   7 O :   -0.152988
   8 C :    0.019562
   9 C :   -0.140887
  10 C :   -0.011125
  11 C :   -0.160193
  12 C :    0.095658
  13 C :    0.047224
  14 C :    0.073847
  15 O :   -0.224496
  16 N :   -0.239566
  17 C :   -0.045172
  18 C :   -0.031454
  19 O :   -0.434321
  20 H :    0.060992
  21 H :    0.060275
  22 H :    0.056272
  23 H :    0.057149
  24 H :    0.053983
  25 H :    0.057615
  26 H :    0.039113
  27 H :    0.247749
  28 H :    0.117297
  29 H :    0.101410
  30 H :    0.081473
  31 H :    0.089456
  32 H :    0.304862
Sum of atomic charges:   -0.0000000

LOEWDIN ATOMIC CHARGES
----------------------
   0 C :   -0.109274
   1 C :   -0.106425
   2 C :   -0.089876
   3 C :   -0.043637
   4 C :   -0.053216
   5 C :   -0.083706
   6 C :    0.058364
   7 O :   -0.133535
   8 C :   -0.045249
   9 C :   -0.112085
  10 C :   -0.097604
  11 C :   -0.142250
  12 C :    0.039323
  13 C :   -0.090928
  14 C :    0.057128
  15 O :   -0.181929
  16 N :   -0.123327
  17 C :   -0.163214
  18 C :   -0.127591
  19 O :   -0.347482
  20 H :    0.127972
  21 H :    0.127661
  22 H :    0.133889
  23 H :    0.135343
  24 H :    0.134171
  25 H :    0.128890
  26 H :    0.127200
  27 H :    0.240305
  28 H :    0.127488
  29 H :    0.121086
  30 H :    0.100354
  31 H :    0.102177
  32 H :    0.289976

  Mayer bond orders larger than 0.100000
B(  0-C ,  1-C ) :   1.3269 B(  0-C ,  5-C ) :   1.3369 B(  0-C , 20-H ) :   0.9669
B(  1-C ,  2-C ) :   1.3362 B(  1-C , 21-H ) :   0.9666 B(  2-C ,  3-C ) :   1.3812
B(  2-C , 22-H ) :   0.9539 B(  3-C ,  4-C ) :   1.3364 B(  3-C , 14-C ) :   0.9817
B(  4-C ,  5-C ) :   1.3783 B(  4-C ,  6-C ) :   0.9558 B(  5-C , 23-H ) :   0.9568
B(  6-C ,  7-O ) :   2.1535 B(  6-C ,  8-C ) :   0.9515 B(  8-C ,  9-C ) :   1.4313
B(  8-C , 13-C ) :   1.2990 B(  9-C , 10-C ) :   1.2289 B(  9-C , 24-H ) :   0.9561
B( 10-C , 11-C ) :   1.4070 B( 10-C , 25-H ) :   0.9647 B( 11-C , 12-C ) :   1.2308
B( 11-C , 26-H ) :   0.9538 B( 12-C , 13-C ) :   1.2087 B( 12-C , 16-N ) :   1.3975
B( 13-C , 14-C ) :   1.0315 B( 14-C , 15-O ) :   1.9490 B( 15-O , 27-H ) :   0.1508
B( 16-N , 17-C ) :   1.0106 B( 16-N , 27-H ) :   0.7581 B( 17-C , 18-C ) :   1.1085
B( 17-C , 28-H ) :   0.9012 B( 17-C , 29-H ) :   0.9180 B( 18-C , 19-O ) :   1.0942
B( 18-C , 30-H ) :   0.9193 B( 18-C , 31-H ) :   0.9144 B( 19-O , 32-H ) :   0.8503

Dispersion correction           -0.046399705
FINAL SINGLE POINT ENERGY      -896.119855506231

DIPOLE MOMENT
-------------

Method             : SCF
Type of density    : Electron Density
Multiplicity       :   1
Irrep              :   0
Energy             :  -896.2167548087641080 Eh
Relativity type    :
Basis              : AO
                                X                 Y                 Z
Electronic contribution:    -11.207053306       4.257814735      -0.367695897
Nuclear contribution   :     12.646601140      -5.342124705       0.379979091
                        -----------------------------------------
Total Dipole Moment    :      1.439547835      -1.084309969       0.012283194
                        -----------------------------------------
Magnitude (a.u.)       :      1.802269945
Magnitude (Debye)      :      4.581006142

Rotational constants in cm-1:             0.019467             0.008102             0.006047
Rotational constants in MHz :           583.613629           242.885601           181.279073

                             ****ORCA TERMINATED NORMALLY****
TOTAL RUN TIME: 0 days 0 hours 0 minutes 32 seconds 51 msec
