                         Program Version 6.0.0  -   RELEASE  -
|  1> ! pbe def2-sv(p) def2/J RI DEFGRID1 loosescf d4 GCP(DFT/SV(P)) printgap
|  2> %output
|  3>     printlevel normal
|  4> end
|  5> * xyz 0 1
|  6> C 2.0289566781 1.278667233 -0.3534142358
|  7> C 1.2025730002 0.0042976107 -0.4134664224
|  8> C 2.0677995579 -1.2449219817 -0.375530964
|  9> S 0.0237385587 -0.0284670774 1.0120011585
| 10> C -1.6390265414 -0.0038182021 0.2146760171
| 11> C -1.8647373904 1.2798207185 -0.5668170221
| 12> C -1.8786592386 -1.2551337487 -0.6137866162
| 13> H 1.3844249789 2.1542990832 -0.370390261
| 14> H 2.614437588 1.3013107217 0.5629781134
| 15> H 2.7060745603 1.3238221446 -1.2039332633
| 16> H 0.5839712091 0.0019971882 -1.3114750381
| 17> H 2.652828352 -1.2666927651 0.5411813181
| 18> H 2.7467535104 -1.2535509595 -1.2257045854
| 19> H 1.4501072722 -2.1392101777 -0.4095907109
| 20> H -2.2910977313 -0.0166131625 1.09245974
| 21> H -1.2194845009 1.3260615677 -1.4416053006
| 22> H -2.8985135945 1.3259346623 -0.9021822137
| 23> H -1.662323135 2.1442712735 0.0611803606
| 24> H -1.6869260347 -2.1443167197 -0.0178276343
| 25> H -1.2327421739 -1.277006571 -1.4890572761
| 26> H -2.9123847404 -1.276846702 -0.9517089002
| 27> *
| 28>
| 29>                          ****END OF INPUT****

CARTESIAN COORDINATES (ANGSTROEM)
---------------------------------
  C      2.028957    1.278667   -0.353414
  C      1.202573    0.004298   -0.413466
  C      2.067800   -1.244922   -0.375531
  S      0.023739   -0.028467    1.012001
  C     -1.639027   -0.003818    0.214676
  C     -1.864737    1.279821   -0.566817
  C     -1.878659   -1.255134   -0.613787
  H      1.384425    2.154299   -0.370390
  H      2.614438    1.301311    0.562978
  H      2.706075    1.323822   -1.203933
  H      0.583971    0.001997   -1.311475
  H      2.652828   -1.266693    0.541181
  H      2.746754   -1.253551   -1.225705
  H      1.450107   -2.139210   -0.409591
  H     -2.291098   -0.016613    1.092460
  H     -1.219485    1.326062   -1.441605
  H     -2.898514    1.325935   -0.902182
  H     -1.662323    2.144271    0.061180
  H     -1.686926   -2.144317   -0.017828
  H     -1.232742   -1.277007   -1.489057
  H     -2.912385   -1.276847   -0.951709

 Total Charge           Charge          ....    0
 Multiplicity           Mult            ....    1
 Number of Electrons    NEL             ....   66
 Basis Dimension        Dim             ....  130

ORBITAL ENERGIES
----------------

  NO   OCC          E(Eh)            E(eV)
   0   2.0000     -88.001321     -2394.6377
   1   2.0000      -9.923792      -270.0401
   2   2.0000      -9.919854      -269.9330
   3   2.0000      -9.880061      -268.8501
   4   2.0000      -9.879953      -268.8472
   5   2.0000      -9.875965      -268.7387
   6   2.0000      -9.875819      -268.7347
   7   2.0000      -7.645301      -208.0392
   8   2.0000      -5.673971      -154.3966
   9   2.0000      -5.670037      -154.2896
  10   2.0000      -5.661500      -154.0572
  11   2.0000      -0.748609       -20.3707
  12   2.0000      -0.712423       -19.3860
  13   2.0000      -0.619965       -16.8701
  14   2.0000      -0.614133       -16.7114
  15   2.0000      -0.613449       -16.6928
  16   2.0000      -0.529153       -14.3990
  17   2.0000      -0.482582       -13.1317
  18   2.0000      -0.429377       -11.6839
  19   2.0000      -0.408474       -11.1151
  20   2.0000      -0.390359       -10.6222
  21   2.0000      -0.375539       -10.2189
  22   2.0000      -0.370861       -10.0916
  23   2.0000      -0.365482        -9.9453
  24   2.0000      -0.345443        -9.4000
  25   2.0000      -0.342433        -9.3181
  26   2.0000      -0.318230        -8.6595
  27   2.0000      -0.309305        -8.4166
  28   2.0000      -0.305508        -8.3133
  29   2.0000      -0.302596        -8.2341
  30   2.0000      -0.279391        -7.6026
  31   2.0000      -0.248909        -6.7732
  32   2.0000      -0.173795        -4.7292
  33   0.0000       0.017032         0.4635
  34   0.0000       0.027933         0.7601
  35   0.0000       0.047938         1.3045
  36   0.0000       0.059888         1.6296
  37   0.0000       0.067970         1.8496

MULLIKEN ATOMIC CHARGES
-----------------------
   0 C :   -0.201861
   1 C :   -0.321094
   2 C :   -0.202841
   3 S :   -0.039880
   4 C :   -0.309111
   5 C :   -0.211377
   6 C :   -0.210607
   7 H :    0.106444
   8 H :    0.104007
   9 H :    0.098105
  10 H :    0.120637
  11 H :    0.104345
  12 H :    0.098601
  13 H :    0.106545
  14 H :    0.118856
  15 H :    0.106029
  16 H :    0.101516
  17 H :    0.112532
  18 H :    0.112100
  19 H :    0.105744
  20 H :    0.101309
Sum of atomic charges:    0.0000000

LOEWDIN ATOMIC CHARGES
----------------------
   0 C :   -0.344985
   1 C :   -0.249179
   2 C :   -0.344791
   3 S :    0.202688
   4 C :   -0.249057
   5 C :   -0.347410
   6 C :   -0.347444
   7 H :    0.119403
   8 H :    0.120425
   9 H :    0.117781
  10 H :    0.117129
  11 H :    0.120455
  12 H :    0.118046
  13 H :    0.119564
  14 H :    0.125659
  15 H :    0.117840
  16 H :    0.120700
  17 H :    0.122431
  18 H :    0.122409
  19 H :    0.117741
  20 H :    0.120597

  Mayer bond orders larger than 0.100000
B(  0-C ,  1-C ) :   1.0867 B(  0-C ,  7-H ) :   0.9485 B(  0-C ,  8-H ) :   0.9496
B(  0-C ,  9-H ) :   0.9414 B(  1-C ,  2-C ) :   1.0880 B(  1-C ,  3-S ) :   0.9947
B(  1-C , 10-H ) :   0.8892 B(  2-C , 11-H ) :   0.9497 B(  2-C , 12-H ) :   0.9418
B(  2-C , 13-H ) :   0.9486 B(  3-S ,  4-C ) :   1.0401 B(  4-C ,  5-C ) :   1.0819
B(  4-C ,  6-C ) :   1.0817 B(  4-C , 14-H ) :   0.9048 B(  5-C , 15-H ) :   0.9432
B(  5-C , 16-H ) :   0.9381 B(  5-C , 17-H ) :   0.9457 B(  6-C , 18-H ) :   0.9460
B(  6-C , 19-H ) :   0.9432 B(  6-C , 20-H ) :   0.9380

Dispersion correction           -0.019102797
FINAL SINGLE POINT ENERGY      -634.346398685928

DIPOLE MOMENT
-------------

Method             : SCF
Type of density    : Electron Density
Multiplicity       :   1
Irrep              :   0
Energy             :  -634.4130734935613418 Eh
Relativity type    :
Basis              : AO
                                X                 Y                 Z
Electronic contribution:     -0.420196805      -0.177013782       6.069145218
Nuclear contribution   :      0.219899435       0.191702829      -6.658068634
                        -----------------------------------------
Total Dipole Moment    :     -0.200297369       0.014689047      -0.588923416
                        -----------------------------------------
Magnitude (a.u.)       :      0.622226321
Magnitude (Debye)      :      1.581573618

Rotational constants in cm-1:             0.099831             0.046971             0.041326
Rotational constants in MHz :          2992.850835          1408.161133          1238.935373

                             ****ORCA TERMINATED NORMALLY****
TOTAL RUN TIME: 0 days 0 hours 0 minutes 9 seconds 521 msec
