                         Program Version 6.0.0  -   RELEASE  -
|  1> ! r2scan-3c def2/J RI DEFGRID2 scfconv6 printgap
|  2> %output
|  3>     printlevel normal
|  4> end
|  5> * xyz 0 1
|  6> C 1.5919307922 -0.8460277538 -0.4438105659
|  7> C 1.3024672511 0.5697201228 0.0385326548
|  8> C 0.0162720039 0.6709133859 0.8596436395
|  9> C -1.266410194 0.551641019 0.0337622554
| 10> N -1.4915132517 -0.807257894 -0.4431143206
| 11> H 1.7394339458 -1.511572095 0.4039647965
| 12> H 0.7570791689 -1.2150992485 -1.0311353172
| 13> H 2.4925804783 -0.8615274372 -1.0530607944
| 14> H 2.1359628754 0.9159545467 0.655131378
| 15> H 1.2276656465 1.2384420703 -0.8213609274
| 16> H 0.0179304567 -0.1023414454 1.6312590709
| 17> H -0.0037859112 1.6416873378 1.3600545905
| 18> H -1.1926381367 1.1991513815 -0.8450255711
| 19> H -2.1060458552 0.9218878857 0.6499066947
| 20> H -2.363514163 -0.8483612552 -0.9581992663
| 21> H -1.5716458196 -1.4361152397 0.3494358189
| 22> *
| 23>
| 24>                          ****END OF INPUT****

CARTESIAN COORDINATES (ANGSTROEM)
---------------------------------
  C      1.591931   -0.846028   -0.443811
  C      1.302467    0.569720    0.038533
  C      0.016272    0.670913    0.859644
  C     -1.266410    0.551641    0.033762
  N     -1.491513   -0.807258   -0.443114
  H      1.739434   -1.511572    0.403965
  H      0.757079   -1.215099   -1.031135
  H      2.492580   -0.861527   -1.053061
  H      2.135963    0.915955    0.655131
  H      1.227666    1.238442   -0.821361
  H      0.017930   -0.102341    1.631259
  H     -0.003786    1.641687    1.360055
  H     -1.192638    1.199151   -0.845026
  H     -2.106046    0.921888    0.649907
  H     -2.363514   -0.848361   -0.958199
  H     -1.571646   -1.436115    0.349436

 Total Charge           Charge          ....    0
 Multiplicity           Mult            ....    1
 Number of Electrons    NEL             ....   42
 Basis Dimension        Dim             ....  155

ORBITAL ENERGIES
----------------

  NO   OCC          E(Eh)            E(eV)
   0   2.0000     -14.134921      -384.6308
   1   2.0000     -10.048866      -273.4435
   2   2.0000     -10.021214      -272.6911
   3   2.0000     -10.016027      -272.5500
   4   2.0000      -9.996708      -272.0242
   5   2.0000      -0.847473       -23.0609
   6   2.0000      -0.744283       -20.2530
   7   2.0000      -0.666922       -18.1479
   8   2.0000      -0.584747       -15.9118
   9   2.0000      -0.532519       -14.4906
  10   2.0000      -0.453378       -12.3371
  11   2.0000      -0.430769       -11.7218
  12   2.0000      -0.418693       -11.3932
  13   2.0000      -0.374100       -10.1798
  14   2.0000      -0.371643       -10.1129
  15   2.0000      -0.340345        -9.2613
  16   2.0000      -0.319632        -8.6976
  17   2.0000      -0.296169        -8.0592
  18   2.0000      -0.293550        -7.9879
  19   2.0000      -0.285087        -7.7576
  20   2.0000      -0.200019        -5.4428
  21   0.0000       0.075758         2.0615
  22   0.0000       0.109577         2.9817
  23   0.0000       0.123855         3.3703
  24   0.0000       0.128136         3.4868
  25   0.0000       0.129186         3.5153

MULLIKEN ATOMIC CHARGES
-----------------------
   0 C :   -0.523895
   1 C :   -0.210479
   2 C :   -0.225365
   3 C :   -0.224582
   4 N :   -0.557420
   5 H :    0.135326
   6 H :    0.198527
   7 H :    0.136614
   8 H :    0.138838
   9 H :    0.125555
  10 H :    0.126735
  11 H :    0.141579
  12 H :    0.141157
  13 H :    0.121977
  14 H :    0.237661
  15 H :    0.237772
Sum of atomic charges:   -0.0000000

LOEWDIN ATOMIC CHARGES
----------------------
   0 C :   -0.433728
   1 C :   -0.314464
   2 C :   -0.289921
   3 C :   -0.075975
   4 N :   -0.750162
   5 H :    0.146089
   6 H :    0.173505
   7 H :    0.145008
   8 H :    0.149164
   9 H :    0.151524
  10 H :    0.154665
  11 H :    0.157151
  12 H :    0.169440
  13 H :    0.147803
  14 H :    0.235324
  15 H :    0.234577

  Mayer bond orders larger than 0.100000
B(  0-C ,  1-C ) :   0.8929 B(  0-C ,  5-H ) :   0.9850 B(  0-C ,  6-H ) :   0.9715
B(  0-C ,  7-H ) :   0.9707 B(  1-C ,  2-C ) :   0.8979 B(  1-C ,  8-H ) :   0.9680
B(  1-C ,  9-H ) :   0.9748 B(  2-C ,  3-C ) :   0.9454 B(  2-C , 10-H ) :   0.9787
B(  2-C , 11-H ) :   0.9625 B(  3-C ,  4-N ) :   0.9163 B(  3-C , 12-H ) :   0.9909
B(  3-C , 13-H ) :   0.9591 B(  4-N , 14-H ) :   0.9186 B(  4-N , 15-H ) :   0.9217

Dispersion correction           -0.003599689
FINAL SINGLE POINT ENERGY      -213.719632781755

DIPOLE MOMENT
-------------

Method             : SCF
Type of density    : Electron Density
Multiplicity       :   1
Irrep              :   0
Energy             :  -213.7268158735720931 Eh
Relativity type    :
Basis              : AO
                                X                 Y                 Z
Electronic contribution:     -1.512988928       0.161907648      -0.069620524
Nuclear contribution   :      1.054809091      -0.058724598       0.317464333
                        -----------------------------------------
Total Dipole Moment    :     -0.458179838       0.103183050       0.247843809
                        -----------------------------------------
Magnitude (a.u.)       :      0.531038661
Magnitude (Debye)      :      1.349793006

Rotational constants in cm-1:             0.241912             0.117533             0.089285
Rotational constants in MHz :          7252.326514          3523.563364          2676.700505

                             ****ORCA TERMINATED NORMALLY****
TOTAL RUN TIME: 0 days 0 hours 0 minutes 17 seconds 733 msec
