                         Program Version 6.0.0  -   RELEASE  -
|  1> ! r2scan-3c def2/J RI DEFGRID2 scfconv6 printgap
|  2> %output
|  3>     printlevel normal
|  4> end
|  5> %cpcm
|  6>     smd true
|  7>     smdsolvent "water"
|  8> end
|  9> * xyz 0 1
| 10> C 1.5919307922 -0.8460277538 -0.4438105659
| 11> C 1.3024672511 0.5697201228 0.0385326548
| 12> C 0.0162720039 0.6709133859 0.8596436395
| 13> C -1.266410194 0.551641019 0.0337622554
| 14> N -1.4915132517 -0.807257894 -0.4431143206
| 15> H 1.7394339458 -1.511572095 0.4039647965
| 16> H 0.7570791689 -1.2150992485 -1.0311353172
| 17> H 2.4925804783 -0.8615274372 -1.0530607944
| 18> H 2.1359628754 0.9159545467 0.655131378
| 19> H 1.2276656465 1.2384420703 -0.8213609274
| 20> H 0.0179304567 -0.1023414454 1.6312590709
| 21> H -0.0037859112 1.6416873378 1.3600545905
| 22> H -1.1926381367 1.1991513815 -0.8450255711
| 23> H -2.1060458552 0.9218878857 0.6499066947
| 24> H -2.363514163 -0.8483612552 -0.9581992663
| 25> H -1.5716458196 -1.4361152397 0.3494358189
| 26> *
| 27>
| 28>                          ****END OF INPUT****

CARTESIAN COORDINATES (ANGSTROEM)
---------------------------------
  C      1.591931   -0.846028   -0.443811
  C      1.302467    0.569720    0.038533
  C      0.016272    0.670913    0.859644
  C     -1.266410    0.551641    0.033762
  N     -1.491513   -0.807258   -0.443114
  H      1.739434   -1.511572    0.403965
  H      0.757079   -1.215099   -1.031135
  H      2.492580   -0.861527   -1.053061
  H      2.135963    0.915955    0.655131
  H      1.227666    1.238442   -0.821361
  H      0.017930   -0.102341    1.631259
  H     -0.003786    1.641687    1.360055
  H     -1.192638    1.199151   -0.845026
  H     -2.106046    0.921888    0.649907
  H     -2.363514   -0.848361   -0.958199
  H     -1.571646   -1.436115    0.349436

 Total Charge           Charge          ....    0
 Multiplicity           Mult            ....    1
 Number of Electrons    NEL             ....   42
 Basis Dimension        Dim             ....  155

ORBITAL ENERGIES
----------------

  NO   OCC          E(Eh)            E(eV)
   0   2.0000     -14.124250      -384.3404
   1   2.0000     -10.040446      -273.2144
   2   2.0000     -10.013605      -272.4840
   3   2.0000     -10.013233      -272.4739
   4   2.0000      -9.998756      -272.0800
   5   2.0000      -0.838010       -22.8034
   6   2.0000      -0.740425       -20.1480
   7   2.0000      -0.663285       -18.0489
   8   2.0000      -0.580515       -15.7966
   9   2.0000      -0.527458       -14.3529
  10   2.0000      -0.443681       -12.0732
  11   2.0000      -0.424610       -11.5542
  12   2.0000      -0.414114       -11.2686
  13   2.0000      -0.370236       -10.0746
  14   2.0000      -0.366716        -9.9788
  15   2.0000      -0.337994        -9.1973
  16   2.0000      -0.314789        -8.5658
  17   2.0000      -0.292505        -7.9595
  18   2.0000      -0.290382        -7.9017
  19   2.0000      -0.281392        -7.6571
  20   2.0000      -0.195078        -5.3084
  21   0.0000       0.088285         2.4024
  22   0.0000       0.116393         3.1672
  23   0.0000       0.126907         3.4533
  24   0.0000       0.132784         3.6132
  25   0.0000       0.139935         3.8078

MULLIKEN ATOMIC CHARGES
-----------------------
   0 C :   -0.555325
   1 C :   -0.232008
   2 C :   -0.230755
   3 C :   -0.248269
   4 N :   -0.628212
   5 H :    0.151027
   6 H :    0.181525
   7 H :    0.146836
   8 H :    0.148025
   9 H :    0.137653
  10 H :    0.141657
  11 H :    0.151658
  12 H :    0.153506
  13 H :    0.128973
  14 H :    0.276962
  15 H :    0.276748
Sum of atomic charges:   -0.0000000

LOEWDIN ATOMIC CHARGES
----------------------
   0 C :   -0.443476
   1 C :   -0.318312
   2 C :   -0.292625
   3 C :   -0.077377
   4 N :   -0.764671
   5 H :    0.150243
   6 H :    0.165490
   7 H :    0.146463
   8 H :    0.151776
   9 H :    0.153686
  10 H :    0.159375
  11 H :    0.160050
  12 H :    0.171540
  13 H :    0.151302
  14 H :    0.243567
  15 H :    0.242969

  Mayer bond orders larger than 0.100000
B(  0-C ,  1-C ) :   0.8865 B(  0-C ,  5-H ) :   0.9812 B(  0-C ,  6-H ) :   0.9768
B(  0-C ,  7-H ) :   0.9700 B(  1-C ,  2-C ) :   0.8914 B(  1-C ,  8-H ) :   0.9673
B(  1-C ,  9-H ) :   0.9777 B(  2-C ,  3-C ) :   0.9283 B(  2-C , 10-H ) :   0.9765
B(  2-C , 11-H ) :   0.9616 B(  3-C ,  4-N ) :   0.9302 B(  3-C , 12-H ) :   0.9921
B(  3-C , 13-H ) :   0.9621 B(  4-N , 14-H ) :   0.9025 B(  4-N , 15-H ) :   0.9068

Dispersion correction           -0.003599689
FINAL SINGLE POINT ENERGY      -213.721802470795

DIPOLE MOMENT
-------------

Method             : SCF
Type of density    : Electron Density
Multiplicity       :   1
Irrep              :   0
Energy             :  -213.7289855626124222 Eh
Relativity type    :
Basis              : AO
                                X                 Y                 Z
Electronic contribution:     -1.631880332       0.222969745       0.068208019
Nuclear contribution   :      1.054809091      -0.058724598       0.317464333
                        -----------------------------------------
Total Dipole Moment    :     -0.577071241       0.164245147       0.385672352
                        -----------------------------------------
Magnitude (a.u.)       :      0.713253706
Magnitude (Debye)      :      1.812946843

Rotational constants in cm-1:             0.241912             0.117533             0.089285
Rotational constants in MHz :          7252.326514          3523.563364          2676.700505

                             ****ORCA TERMINATED NORMALLY****
TOTAL RUN TIME: 0 days 0 hours 0 minutes 21 seconds 622 msec
