                         Program Version 6.0.0  -   RELEASE  -
|  1> ! pbe def2-sv(p) def2/J RI DEFGRID1 loosescf d4 GCP(DFT/SV(P)) printgap
|  2> %output
|  3>     printlevel normal
|  4> end
|  5> * xyz 0 1
|  6> C -3.5752182483 -1.0498495992 0.4142273766
|  7> C -2.6741436512 0.1267334127 0.0584289094
|  8> C -1.1975129311 -0.2610044351 0.1124503586
|  9> C -0.2992923994 0.9180569693 -0.2485770742
| 10> C 1.1752750768 0.614677816 -0.2154139831
| 11> O 2.0391294321 1.4277784755 -0.4817901714
| 12> O 1.4470869326 -0.6341590496 0.1362998648
| 13> C 2.8224955883 -1.0184104279 0.198077425
| 14> H -3.4195543877 -1.87213244 -0.2800950126
| 15> H -3.3585922984 -1.4050409935 1.4188884854
| 16> H -4.6208952114 -0.7563858487 0.3710476851
| 17> H -2.9190188621 0.4803939025 -0.9451064946
| 18> H -2.8583140134 0.9479199234 0.7540327348
| 19> H -1.0112807623 -1.0839331842 -0.5793621177
| 20> H -0.9494227375 -0.6123421661 1.1151636321
| 21> H -0.4678884562 1.7546140674 0.4341282466
| 22> H -0.5273200761 1.284110096 -1.2526755675
| 23> H 3.3567697431 -0.3824064856 0.9048253373
| 24> H 3.2826215493 -0.9175789313 -0.785538908
| 25> H 2.8218180597 -2.0532628989 0.5252260985
| 26> *
| 27>
| 28>                          ****END OF INPUT****

CARTESIAN COORDINATES (ANGSTROEM)
---------------------------------
  C     -3.575218   -1.049850    0.414227
  C     -2.674144    0.126733    0.058429
  C     -1.197513   -0.261004    0.112450
  C     -0.299292    0.918057   -0.248577
  C      1.175275    0.614678   -0.215414
  O      2.039129    1.427778   -0.481790
  O      1.447087   -0.634159    0.136300
  C      2.822496   -1.018410    0.198077
  H     -3.419554   -1.872132   -0.280095
  H     -3.358592   -1.405041    1.418888
  H     -4.620895   -0.756386    0.371048
  H     -2.919019    0.480394   -0.945106
  H     -2.858314    0.947920    0.754033
  H     -1.011281   -1.083933   -0.579362
  H     -0.949423   -0.612342    1.115164
  H     -0.467888    1.754614    0.434128
  H     -0.527320    1.284110   -1.252676
  H      3.356770   -0.382406    0.904825
  H      3.282622   -0.917579   -0.785539
  H      2.821818   -2.053263    0.525226

 Total Charge           Charge          ....    0
 Multiplicity           Mult            ....    1
 Number of Electrons    NEL             ....   64
 Basis Dimension        Dim             ....  136

ORBITAL ENERGIES
----------------

  NO   OCC          E(Eh)            E(eV)
   0   2.0000     -18.800207      -511.5796
   1   2.0000     -18.728956      -509.6408
   2   2.0000     -10.001529      -272.1554
   3   2.0000      -9.941073      -270.5103
   4   2.0000      -9.896437      -269.2957
   5   2.0000      -9.886647      -269.0293
   6   2.0000      -9.886541      -269.0264
   7   2.0000      -9.875348      -268.7219
   8   2.0000      -1.005670       -27.3657
   9   2.0000      -0.904885       -24.6232
  10   2.0000      -0.731711       -19.9109
  11   2.0000      -0.685418       -18.6512
  12   2.0000      -0.644274       -17.5316
  13   2.0000      -0.580239       -15.7891
  14   2.0000      -0.520493       -14.1633
  15   2.0000      -0.508648       -13.8410
  16   2.0000      -0.446842       -12.1592
  17   2.0000      -0.444453       -12.0942
  18   2.0000      -0.422013       -11.4835
  19   2.0000      -0.407033       -11.0759
  20   2.0000      -0.384828       -10.4717
  21   2.0000      -0.378839       -10.3087
  22   2.0000      -0.369427       -10.0526
  23   2.0000      -0.339764        -9.2455
  24   2.0000      -0.335275        -9.1233
  25   2.0000      -0.311246        -8.4694
  26   2.0000      -0.308309        -8.3895
  27   2.0000      -0.296258        -8.0616
  28   2.0000      -0.293090        -7.9754
  29   2.0000      -0.289566        -7.8795
  30   2.0000      -0.255324        -6.9477
  31   2.0000      -0.212492        -5.7822
  32   0.0000      -0.017261        -0.4697
  33   0.0000       0.033142         0.9018
  34   0.0000       0.055596         1.5128
  35   0.0000       0.062661         1.7051
  36   0.0000       0.070482         1.9179

MULLIKEN ATOMIC CHARGES
-----------------------
   0 C :   -0.252562
   1 C :   -0.181017
   2 C :   -0.183243
   3 C :   -0.174030
   4 C :    0.128891
   5 O :   -0.216674
   6 O :   -0.236475
   7 C :   -0.108505
   8 H :    0.097024
   9 H :    0.097048
  10 H :    0.102035
  11 H :    0.082821
  12 H :    0.082985
  13 H :    0.087007
  14 H :    0.087024
  15 H :    0.113524
  16 H :    0.113459
  17 H :    0.120307
  18 H :    0.119764
  19 H :    0.120618
Sum of atomic charges:    0.0000000

LOEWDIN ATOMIC CHARGES
----------------------
   0 C :   -0.339240
   1 C :   -0.233915
   2 C :   -0.229942
   3 C :   -0.246310
   4 C :    0.033225
   5 O :   -0.176265
   6 O :   -0.066051
   7 C :   -0.202764
   8 H :    0.117021
   9 H :    0.117026
  10 H :    0.118862
  11 H :    0.113964
  12 H :    0.114034
  13 H :    0.117437
  14 H :    0.117453
  15 H :    0.142512
  16 H :    0.142336
  17 H :    0.120325
  18 H :    0.120136
  19 H :    0.120157

  Mayer bond orders larger than 0.100000
B(  0-C ,  1-C ) :   1.1604 B(  0-C ,  8-H ) :   0.9542 B(  0-C ,  9-H ) :   0.9542
B(  0-C , 10-H ) :   0.9530 B(  1-C ,  2-C ) :   1.1286 B(  1-C , 11-H ) :   0.9248
B(  1-C , 12-H ) :   0.9248 B(  2-C ,  3-C ) :   1.1301 B(  2-C , 13-H ) :   0.9224
B(  2-C , 14-H ) :   0.9218 B(  3-C ,  4-C ) :   1.0311 B(  3-C , 15-H ) :   0.8953
B(  3-C , 16-H ) :   0.8960 B(  4-C ,  5-O ) :   2.0513 B(  4-C ,  6-O ) :   1.2279
B(  6-O ,  7-C ) :   0.9378 B(  7-C , 17-H ) :   0.9514 B(  7-C , 18-H ) :   0.9527
B(  7-C , 19-H ) :   0.9588

Dispersion correction           -0.014575502
FINAL SINGLE POINT ENERGY      -385.451667267745

DIPOLE MOMENT
-------------

Method             : SCF
Type of density    : Electron Density
Multiplicity       :   1
Irrep              :   0
Energy             :  -385.5269929234347615 Eh
Relativity type    :
Basis              : AO
                                X                 Y                 Z
Electronic contribution:      9.698239512       3.642298093      -1.365168052
Nuclear contribution   :     -9.959555309      -4.318851740       1.571498159
                        -----------------------------------------
Total Dipole Moment    :     -0.261315797      -0.676553647       0.206330108
                        -----------------------------------------
Magnitude (a.u.)       :      0.754044359
Magnitude (Debye)      :      1.916628445

Rotational constants in cm-1:             0.154744             0.029106             0.025069
Rotational constants in MHz :          4639.108054           872.579104           751.543701

                             ****ORCA TERMINATED NORMALLY****
TOTAL RUN TIME: 0 days 0 hours 0 minutes 9 seconds 854 msec
