                         Program Version 6.0.0  -   RELEASE  -
|  1> ! pbe def2-sv(p) def2/J RI DEFGRID1 loosescf d4 GCP(DFT/SV(P)) printgap
|  2> %output
|  3>     printlevel normal
|  4> end
|  5> * xyz 0 1
|  6> C -2.2360161653 -1.445154391 -0.2338839515
|  7> C -2.5047385924 0.0306445849 0.0341247133
|  8> C -1.3442832077 0.6896144288 0.7899869105
|  9> C -0.1052766887 0.7098342806 -0.066963447
| 10> O -0.0082160959 1.2792240069 -1.1354655733
| 11> O 0.8830625422 0.0151897118 0.477043845
| 12> C 2.1264405465 -0.0675307294 -0.2396533692
| 13> C 2.9964879777 -1.1077899556 0.4389169087
| 14> H -3.0863142877 -1.89959519 -0.7352324534
| 15> H -1.3610366385 -1.5637671883 -0.8702592449
| 16> H -2.057492713 -1.9762334336 0.6979325765
| 17> H -3.4129589616 0.1362161311 0.6279269923
| 18> H -2.648867778 0.556883615 -0.9114909926
| 19> H -1.1240158817 0.1490521287 1.7094427541
| 20> H -1.6053963867 1.7228120727 1.0223555537
| 21> H 1.9099178783 -0.3299807522 -1.2806506877
| 22> H 2.5952411662 0.9218235238 -0.2283839391
| 23> H 3.1764115271 -0.8237828202 1.4713825449
| 24> H 2.5029402361 -2.0750146195 0.4227768374
| 25> H 3.9441510365 -1.1803216638 -0.0842763603
| 26> *
| 27>
| 28>                          ****END OF INPUT****

CARTESIAN COORDINATES (ANGSTROEM)
---------------------------------
  C     -2.236016   -1.445154   -0.233884
  C     -2.504739    0.030645    0.034125
  C     -1.344283    0.689614    0.789987
  C     -0.105277    0.709834   -0.066963
  O     -0.008216    1.279224   -1.135466
  O      0.883063    0.015190    0.477044
  C      2.126441   -0.067531   -0.239653
  C      2.996488   -1.107790    0.438917
  H     -3.086314   -1.899595   -0.735232
  H     -1.361037   -1.563767   -0.870259
  H     -2.057493   -1.976233    0.697933
  H     -3.412959    0.136216    0.627927
  H     -2.648868    0.556884   -0.911491
  H     -1.124016    0.149052    1.709443
  H     -1.605396    1.722812    1.022356
  H      1.909918   -0.329981   -1.280651
  H      2.595241    0.921824   -0.228384
  H      3.176412   -0.823783    1.471383
  H      2.502940   -2.075015    0.422777
  H      3.944151   -1.180322   -0.084276

 Total Charge           Charge          ....    0
 Multiplicity           Mult            ....    1
 Number of Electrons    NEL             ....   64
 Basis Dimension        Dim             ....  136

ORBITAL ENERGIES
----------------

  NO   OCC          E(Eh)            E(eV)
   0   2.0000     -18.798045      -511.5208
   1   2.0000     -18.729271      -509.6494
   2   2.0000     -10.002976      -272.1948
   3   2.0000      -9.946802      -270.6662
   4   2.0000      -9.895422      -269.2681
   5   2.0000      -9.892056      -269.1765
   6   2.0000      -9.889641      -269.1108
   7   2.0000      -9.877845      -268.7898
   8   2.0000      -1.004365       -27.3302
   9   2.0000      -0.906315       -24.6621
  10   2.0000      -0.728275       -19.8174
  11   2.0000      -0.700017       -19.0484
  12   2.0000      -0.636479       -17.3195
  13   2.0000      -0.584122       -15.8948
  14   2.0000      -0.531536       -14.4638
  15   2.0000      -0.503483       -13.7005
  16   2.0000      -0.449657       -12.2358
  17   2.0000      -0.443751       -12.0751
  18   2.0000      -0.415148       -11.2968
  19   2.0000      -0.402016       -10.9394
  20   2.0000      -0.387968       -10.5571
  21   2.0000      -0.364607        -9.9214
  22   2.0000      -0.362908        -9.8752
  23   2.0000      -0.352246        -9.5851
  24   2.0000      -0.346593        -9.4313
  25   2.0000      -0.322597        -8.7783
  26   2.0000      -0.309895        -8.4327
  27   2.0000      -0.298498        -8.1225
  28   2.0000      -0.296271        -8.0620
  29   2.0000      -0.290850        -7.9144
  30   2.0000      -0.255744        -6.9592
  31   2.0000      -0.215079        -5.8526
  32   0.0000      -0.019368        -0.5270
  33   0.0000       0.034669         0.9434
  34   0.0000       0.053368         1.4522
  35   0.0000       0.074983         2.0404
  36   0.0000       0.077310         2.1037

MULLIKEN ATOMIC CHARGES
-----------------------
   0 C :   -0.287883
   1 C :   -0.207111
   2 C :   -0.112307
   3 C :    0.086570
   4 O :   -0.216079
   5 O :   -0.237122
   6 C :   -0.031065
   7 C :   -0.272521
   8 H :    0.108048
   9 H :    0.115354
  10 H :    0.099647
  11 H :    0.093477
  12 H :    0.108630
  13 H :    0.091482
  14 H :    0.110641
  15 H :    0.107073
  16 H :    0.103849
  17 H :    0.114345
  18 H :    0.114157
  19 H :    0.110813
Sum of atomic charges:    0.0000000

LOEWDIN ATOMIC CHARGES
----------------------
   0 C :   -0.342674
   1 C :   -0.225929
   2 C :   -0.245860
   3 C :    0.033737
   4 O :   -0.174144
   5 O :   -0.068141
   6 C :   -0.109539
   7 C :   -0.350631
   8 H :    0.121690
   9 H :    0.119719
  10 H :    0.117845
  11 H :    0.118206
  12 H :    0.124497
  13 H :    0.125771
  14 H :    0.140575
  15 H :    0.116258
  16 H :    0.116059
  17 H :    0.126318
  18 H :    0.126179
  19 H :    0.130064

  Mayer bond orders larger than 0.100000
B(  0-C ,  1-C ) :   1.1539 B(  0-C ,  8-H ) :   0.9517 B(  0-C ,  9-H ) :   0.9486
B(  0-C , 10-H ) :   0.9538 B(  1-C ,  2-C ) :   1.1125 B(  1-C , 11-H ) :   0.9288
B(  1-C , 12-H ) :   0.9213 B(  2-C ,  3-C ) :   1.0243 B(  2-C , 13-H ) :   0.9097
B(  2-C , 14-H ) :   0.8952 B(  3-C ,  4-O ) :   2.0435 B(  3-C ,  5-O ) :   1.2128
B(  5-O ,  6-C ) :   0.9122 B(  6-C ,  7-C ) :   1.1508 B(  6-C , 15-H ) :   0.9267
B(  6-C , 16-H ) :   0.9348 B(  7-C , 17-H ) :   0.9490 B(  7-C , 18-H ) :   0.9511
B(  7-C , 19-H ) :   0.9447

Dispersion correction           -0.014976784
FINAL SINGLE POINT ENERGY      -385.458003915199

DIPOLE MOMENT
-------------

Method             : SCF
Type of density    : Electron Density
Multiplicity       :   1
Irrep              :   0
Energy             :  -385.5329041561774943 Eh
Relativity type    :
Basis              : AO
                                X                 Y                 Z
Electronic contribution:      1.318966966       5.478100157      -1.201702392
Nuclear contribution   :     -1.082262951      -5.949336628       1.717892911
                        -----------------------------------------
Total Dipole Moment    :      0.236704014      -0.471236472       0.516190520
                        -----------------------------------------
Magnitude (a.u.)       :      0.737933097
Magnitude (Debye)      :      1.875676869

Rotational constants in cm-1:             0.117312             0.036997             0.032610
Rotational constants in MHz :          3516.927240          1109.127573           977.621042

                             ****ORCA TERMINATED NORMALLY****
TOTAL RUN TIME: 0 days 0 hours 0 minutes 10 seconds 779 msec
