                         Program Version 6.0.0  -   RELEASE  -
|  1> ! r2scan-3c def2/J RI DEFGRID2 scfconv6 printgap
|  2> %output
|  3>     printlevel normal
|  4> end
|  5> * xyz 0 1
|  6> C 2.1877856953 1.1136091239 -0.5478402096
|  7> C 1.1984666495 0.2902302242 0.2728084121
|  8> C 1.8495688875 -1.0218795921 0.7160743642
|  9> N 0.0265934287 -0.0027561262 -0.5441036277
| 10> C -1.2055297641 -0.3164137839 0.1638126204
| 11> C -2.1497590256 -1.0255305981 -0.8069162224
| 12> C -1.8961386258 0.9134931236 0.7700857572
| 13> H 1.7549810402 2.0734943803 -0.8228670575
| 14> H 3.0925897434 1.2958485307 0.0255487026
| 15> H 2.4487805464 0.5747973289 -1.45492479
| 16> H 0.9310345043 0.8683264956 1.177903677
| 17> H 2.1267620492 -1.6032403282 -0.1584673171
| 18> H 1.1632764846 -1.6114096001 1.3176780113
| 19> H 2.7383858903 -0.8180417211 1.3069992632
| 20> H -0.1492171403 0.7634030711 -1.1861164229
| 21> H -0.9486481927 -1.0099852316 0.971977823
| 22> H -3.0512622996 -1.3461913509 -0.2923433122
| 23> H -2.4282986428 -0.3540422234 -1.6156388907
| 24> H -1.6559703731 -1.8932008363 -1.2336187502
| 25> H -1.2317044645 1.4327368903 1.4579061005
| 26> H -2.7864369552 0.6144781694 1.3165671491
| 27> H -2.1878621421 1.6053606535 -0.0183119466
| 28> *
| 29>
| 30>                          ****END OF INPUT****

CARTESIAN COORDINATES (ANGSTROEM)
---------------------------------
  C      2.187786    1.113609   -0.547840
  C      1.198467    0.290230    0.272808
  C      1.849569   -1.021880    0.716074
  N      0.026593   -0.002756   -0.544104
  C     -1.205530   -0.316414    0.163813
  C     -2.149759   -1.025531   -0.806916
  C     -1.896139    0.913493    0.770086
  H      1.754981    2.073494   -0.822867
  H      3.092590    1.295849    0.025549
  H      2.448781    0.574797   -1.454925
  H      0.931035    0.868326    1.177904
  H      2.126762   -1.603240   -0.158467
  H      1.163276   -1.611410    1.317678
  H      2.738386   -0.818042    1.306999
  H     -0.149217    0.763403   -1.186116
  H     -0.948648   -1.009985    0.971978
  H     -3.051262   -1.346191   -0.292343
  H     -2.428299   -0.354042   -1.615639
  H     -1.655970   -1.893201   -1.233619
  H     -1.231704    1.432737    1.457906
  H     -2.786437    0.614478    1.316567
  H     -2.187862    1.605361   -0.018312

 Total Charge           Charge          ....    0
 Multiplicity           Mult            ....    1
 Number of Electrons    NEL             ....   58
 Basis Dimension        Dim             ....  213

ORBITAL ENERGIES
----------------

  NO   OCC          E(Eh)            E(eV)
   0   2.0000     -14.132438      -384.5632
   1   2.0000     -10.055519      -273.6246
   2   2.0000     -10.054966      -273.6095
   3   2.0000     -10.017020      -272.5770
   4   2.0000     -10.014305      -272.5031
   5   2.0000     -10.010256      -272.3929
   6   2.0000     -10.008673      -272.3498
   7   2.0000      -0.871413       -23.7124
   8   2.0000      -0.752055       -20.4644
   9   2.0000      -0.692300       -18.8384
  10   2.0000      -0.650769       -17.7083
  11   2.0000      -0.648637       -17.6503
  12   2.0000      -0.552395       -15.0314
  13   2.0000      -0.535820       -14.5804
  14   2.0000      -0.455105       -12.3840
  15   2.0000      -0.428513       -11.6604
  16   2.0000      -0.416819       -11.3422
  17   2.0000      -0.395613       -10.7652
  18   2.0000      -0.377748       -10.2790
  19   2.0000      -0.370275       -10.0757
  20   2.0000      -0.353969        -9.6320
  21   2.0000      -0.352320        -9.5871
  22   2.0000      -0.341375        -9.2893
  23   2.0000      -0.320983        -8.7344
  24   2.0000      -0.313435        -8.5290
  25   2.0000      -0.305309        -8.3079
  26   2.0000      -0.297153        -8.0860
  27   2.0000      -0.291717        -7.9380
  28   2.0000      -0.184345        -5.0163
  29   0.0000       0.076625         2.0851
  30   0.0000       0.103971         2.8292
  31   0.0000       0.112519         3.0618
  32   0.0000       0.121510         3.3065
  33   0.0000       0.125462         3.4140

MULLIKEN ATOMIC CHARGES
-----------------------
   0 C :   -0.498174
   1 C :    0.016175
   2 C :   -0.474829
   3 N :   -0.299812
   4 C :   -0.038543
   5 C :   -0.467268
   6 C :   -0.468915
   7 H :    0.141107
   8 H :    0.146699
   9 H :    0.161628
  10 H :    0.122193
  11 H :    0.157726
  12 H :    0.135221
  13 H :    0.142539
  14 H :    0.221307
  15 H :    0.128113
  16 H :    0.140683
  17 H :    0.139327
  18 H :    0.160664
  19 H :    0.144491
  20 H :    0.147448
  21 H :    0.142219
Sum of atomic charges:    0.0000000

LOEWDIN ATOMIC CHARGES
----------------------
   0 C :   -0.387617
   1 C :   -0.015757
   2 C :   -0.390003
   3 N :   -0.837898
   4 C :   -0.020159
   5 C :   -0.386695
   6 C :   -0.404072
   7 H :    0.151888
   8 H :    0.156910
   9 H :    0.160544
  10 H :    0.156061
  11 H :    0.160484
  12 H :    0.151788
  13 H :    0.150994
  14 H :    0.251634
  15 H :    0.176691
  16 H :    0.151343
  17 H :    0.152775
  18 H :    0.161667
  19 H :    0.152813
  20 H :    0.154126
  21 H :    0.152482

  Mayer bond orders larger than 0.100000
B(  0-C ,  1-C ) :   0.9115 B(  0-C ,  7-H ) :   0.9761 B(  0-C ,  8-H ) :   0.9775
B(  0-C ,  9-H ) :   0.9820 B(  1-C ,  2-C ) :   0.9544 B(  1-C ,  3-N ) :   0.8089
B(  1-C , 10-H ) :   0.9192 B(  2-C , 11-H ) :   0.9784 B(  2-C , 12-H ) :   0.9665
B(  2-C , 13-H ) :   0.9844 B(  3-N ,  4-C ) :   0.8694 B(  3-N , 14-H ) :   0.9207
B(  4-C ,  5-C ) :   0.9605 B(  4-C ,  6-C ) :   0.9103 B(  4-C , 15-H ) :   0.9476
B(  5-C , 16-H ) :   0.9827 B(  5-C , 17-H ) :   0.9718 B(  5-C , 18-H ) :   0.9760
B(  6-C , 19-H ) :   0.9721 B(  6-C , 20-H ) :   0.9766 B(  6-C , 21-H ) :   0.9765

Dispersion correction           -0.005937338
FINAL SINGLE POINT ENERGY      -292.319505475000

DIPOLE MOMENT
-------------

Method             : SCF
Type of density    : Electron Density
Multiplicity       :   1
Irrep              :   0
Energy             :  -292.3279543792789923 Eh
Relativity type    :
Basis              : AO
                                X                 Y                 Z
Electronic contribution:      0.102642401      -0.261705096      -0.579420164
Nuclear contribution   :     -0.172091878       0.555690701       0.740325390
                        -----------------------------------------
Total Dipole Moment    :     -0.069449477       0.293985605       0.160905226
                        -----------------------------------------
Magnitude (a.u.)       :      0.342259050
Magnitude (Debye)      :      0.869953369

Rotational constants in cm-1:             0.137377             0.048247             0.044808
Rotational constants in MHz :          4118.472667          1446.403402          1343.298216

                             ****ORCA TERMINATED NORMALLY****
TOTAL RUN TIME: 0 days 0 hours 0 minutes 25 seconds 102 msec
