                         Program Version 6.0.0  -   RELEASE  -
|  1> ! r2scan-3c def2/J RI DEFGRID2 scfconv6 printgap
|  2> %output
|  3>     printlevel normal
|  4> end
|  5> %cpcm
|  6>     smd true
|  7>     smdsolvent "water"
|  8> end
|  9> * xyz 0 1
| 10> C 2.1877856953 1.1136091239 -0.5478402096
| 11> C 1.1984666495 0.2902302242 0.2728084121
| 12> C 1.8495688875 -1.0218795921 0.7160743642
| 13> N 0.0265934287 -0.0027561262 -0.5441036277
| 14> C -1.2055297641 -0.3164137839 0.1638126204
| 15> C -2.1497590256 -1.0255305981 -0.8069162224
| 16> C -1.8961386258 0.9134931236 0.7700857572
| 17> H 1.7549810402 2.0734943803 -0.8228670575
| 18> H 3.0925897434 1.2958485307 0.0255487026
| 19> H 2.4487805464 0.5747973289 -1.45492479
| 20> H 0.9310345043 0.8683264956 1.177903677
| 21> H 2.1267620492 -1.6032403282 -0.1584673171
| 22> H 1.1632764846 -1.6114096001 1.3176780113
| 23> H 2.7383858903 -0.8180417211 1.3069992632
| 24> H -0.1492171403 0.7634030711 -1.1861164229
| 25> H -0.9486481927 -1.0099852316 0.971977823
| 26> H -3.0512622996 -1.3461913509 -0.2923433122
| 27> H -2.4282986428 -0.3540422234 -1.6156388907
| 28> H -1.6559703731 -1.8932008363 -1.2336187502
| 29> H -1.2317044645 1.4327368903 1.4579061005
| 30> H -2.7864369552 0.6144781694 1.3165671491
| 31> H -2.1878621421 1.6053606535 -0.0183119466
| 32> *
| 33>
| 34>                          ****END OF INPUT****

CARTESIAN COORDINATES (ANGSTROEM)
---------------------------------
  C      2.187786    1.113609   -0.547840
  C      1.198467    0.290230    0.272808
  C      1.849569   -1.021880    0.716074
  N      0.026593   -0.002756   -0.544104
  C     -1.205530   -0.316414    0.163813
  C     -2.149759   -1.025531   -0.806916
  C     -1.896139    0.913493    0.770086
  H      1.754981    2.073494   -0.822867
  H      3.092590    1.295849    0.025549
  H      2.448781    0.574797   -1.454925
  H      0.931035    0.868326    1.177904
  H      2.126762   -1.603240   -0.158467
  H      1.163276   -1.611410    1.317678
  H      2.738386   -0.818042    1.306999
  H     -0.149217    0.763403   -1.186116
  H     -0.948648   -1.009985    0.971978
  H     -3.051262   -1.346191   -0.292343
  H     -2.428299   -0.354042   -1.615639
  H     -1.655970   -1.893201   -1.233619
  H     -1.231704    1.432737    1.457906
  H     -2.786437    0.614478    1.316567
  H     -2.187862    1.605361   -0.018312

 Total Charge           Charge          ....    0
 Multiplicity           Mult            ....    1
 Number of Electrons    NEL             ....   58
 Basis Dimension        Dim             ....  213

ORBITAL ENERGIES
----------------

  NO   OCC          E(Eh)            E(eV)
   0   2.0000     -14.127044      -384.4164
   1   2.0000     -10.049611      -273.4638
   2   2.0000     -10.048526      -273.4343
   3   2.0000     -10.008318      -272.3402
   4   2.0000     -10.004873      -272.2464
   5   2.0000     -10.004842      -272.2456
   6   2.0000     -10.003595      -272.2116
   7   2.0000      -0.865997       -23.5650
   8   2.0000      -0.745752       -20.2930
   9   2.0000      -0.685994       -18.6668
  10   2.0000      -0.644718       -17.5437
  11   2.0000      -0.642213       -17.4755
  12   2.0000      -0.546167       -14.8619
  13   2.0000      -0.529379       -14.4051
  14   2.0000      -0.449088       -12.2203
  15   2.0000      -0.422238       -11.4897
  16   2.0000      -0.410071       -11.1586
  17   2.0000      -0.389202       -10.5907
  18   2.0000      -0.370745       -10.0885
  19   2.0000      -0.363442        -9.8898
  20   2.0000      -0.348234        -9.4759
  21   2.0000      -0.344713        -9.3801
  22   2.0000      -0.335329        -9.1248
  23   2.0000      -0.314520        -8.5585
  24   2.0000      -0.307490        -8.3672
  25   2.0000      -0.298953        -8.1349
  26   2.0000      -0.290268        -7.8986
  27   2.0000      -0.284679        -7.7465
  28   2.0000      -0.183326        -4.9886
  29   0.0000       0.086591         2.3563
  30   0.0000       0.115844         3.1523
  31   0.0000       0.120221         3.2714
  32   0.0000       0.127557         3.4710
  33   0.0000       0.131856         3.5880

MULLIKEN ATOMIC CHARGES
-----------------------
   0 C :   -0.528248
   1 C :    0.029433
   2 C :   -0.533965
   3 N :   -0.370505
   4 C :   -0.005061
   5 C :   -0.525624
   6 C :   -0.522485
   7 H :    0.158725
   8 H :    0.161484
   9 H :    0.162442
  10 H :    0.135253
  11 H :    0.159567
  12 H :    0.154876
  13 H :    0.158574
  14 H :    0.269603
  15 H :    0.146321
  16 H :    0.156931
  17 H :    0.159788
  18 H :    0.158263
  19 H :    0.156262
  20 H :    0.159840
  21 H :    0.158524
Sum of atomic charges:   -0.0000000

LOEWDIN ATOMIC CHARGES
----------------------
   0 C :   -0.393923
   1 C :   -0.015620
   2 C :   -0.401227
   3 N :   -0.855248
   4 C :   -0.019080
   5 C :   -0.397510
   6 C :   -0.410505
   7 H :    0.157668
   8 H :    0.160647
   9 H :    0.159730
  10 H :    0.161507
  11 H :    0.157757
  12 H :    0.155865
  13 H :    0.155987
  14 H :    0.260908
  15 H :    0.181179
  16 H :    0.156334
  17 H :    0.157464
  18 H :    0.157874
  19 H :    0.155996
  20 H :    0.157159
  21 H :    0.157038

  Mayer bond orders larger than 0.100000
B(  0-C ,  1-C ) :   0.9147 B(  0-C ,  7-H ) :   0.9715 B(  0-C ,  8-H ) :   0.9757
B(  0-C ,  9-H ) :   0.9779 B(  1-C ,  2-C ) :   0.9322 B(  1-C ,  3-N ) :   0.8112
B(  1-C , 10-H ) :   0.9223 B(  2-C , 11-H ) :   0.9794 B(  2-C , 12-H ) :   0.9666
B(  2-C , 13-H ) :   0.9794 B(  3-N ,  4-C ) :   0.8690 B(  3-N , 14-H ) :   0.9055
B(  4-C ,  5-C ) :   0.9316 B(  4-C ,  6-C ) :   0.8995 B(  4-C , 15-H ) :   0.9500
B(  5-C , 16-H ) :   0.9784 B(  5-C , 17-H ) :   0.9733 B(  5-C , 18-H ) :   0.9771
B(  6-C , 19-H ) :   0.9694 B(  6-C , 20-H ) :   0.9743 B(  6-C , 21-H ) :   0.9759

Dispersion correction           -0.005937338
FINAL SINGLE POINT ENERGY      -292.321775903856

DIPOLE MOMENT
-------------

Method             : SCF
Type of density    : Electron Density
Multiplicity       :   1
Irrep              :   0
Energy             :  -292.3302248081350854 Eh
Relativity type    :
Basis              : AO
                                X                 Y                 Z
Electronic contribution:      0.043001114      -0.066492304      -0.455988082
Nuclear contribution   :     -0.172091878       0.555690701       0.740325390
                        -----------------------------------------
Total Dipole Moment    :     -0.129090764       0.489198397       0.284337308
                        -----------------------------------------
Magnitude (a.u.)       :      0.580368160
Magnitude (Debye)      :      1.475178629

Rotational constants in cm-1:             0.137377             0.048247             0.044808
Rotational constants in MHz :          4118.472667          1446.403402          1343.298216

                             ****ORCA TERMINATED NORMALLY****
TOTAL RUN TIME: 0 days 0 hours 0 minutes 33 seconds 136 msec
