                         Program Version 6.0.0  -   RELEASE  -
|  1> ! r2scan-3c def2/J RI DEFGRID2 scfconv6 printgap
|  2> %output
|  3>     printlevel normal
|  4> end
|  5> * xyz 0 1
|  6> C -3.5417014645 -0.8125260094 0.057184455
|  7> C -2.1585286858 -0.3718755536 0.51771635
|  8> C -1.2284186478 -0.1163703637 -0.6722366294
|  9> C 0.0934731774 0.4411542063 -0.2138341891
| 10> O 0.2236605266 1.378233155 0.5461404132
| 11> O 1.1136263016 -0.2154483985 -0.7525214726
| 12> C 2.449928436 0.1891977598 -0.4079880375
| 13> C 2.9170054204 -0.4947302084 0.8677457755
| 14> H -3.4741344368 -1.7251355312 -0.5294982628
| 15> H -4.1806172923 -1.0004184735 0.9156034549
| 16> H -4.0038212701 -0.0418303626 -0.5544148431
| 17> H -1.7208841676 -1.1417442905 1.1562803765
| 18> H -2.2317487446 0.5452772641 1.1053637726
| 19> H -1.6868294419 0.6252719704 -1.3300799338
| 20> H -1.0479527857 -1.0294756612 -1.2380454324
| 21> H 3.0561970372 -0.1084506346 -1.2639121018
| 22> H 2.4649701879 1.2768660257 -0.2895868885
| 23> H 2.3012139268 -0.1774976397 1.7064772087
| 24> H 2.8437557587 -1.5737290341 0.7621360703
| 25> H 3.9485931205 -0.2222458003 1.0650699361
| 26> *
| 27>
| 28>                          ****END OF INPUT****

CARTESIAN COORDINATES (ANGSTROEM)
---------------------------------
  C     -3.541701   -0.812526    0.057184
  C     -2.158529   -0.371876    0.517716
  C     -1.228419   -0.116370   -0.672237
  C      0.093473    0.441154   -0.213834
  O      0.223661    1.378233    0.546140
  O      1.113626   -0.215448   -0.752521
  C      2.449928    0.189198   -0.407988
  C      2.917005   -0.494730    0.867746
  H     -3.474134   -1.725136   -0.529498
  H     -4.180617   -1.000418    0.915603
  H     -4.003821   -0.041830   -0.554415
  H     -1.720884   -1.141744    1.156280
  H     -2.231749    0.545277    1.105364
  H     -1.686829    0.625272   -1.330080
  H     -1.047953   -1.029476   -1.238045
  H      3.056197   -0.108451   -1.263912
  H      2.464970    1.276866   -0.289587
  H      2.301214   -0.177498    1.706477
  H      2.843756   -1.573729    0.762136
  H      3.948593   -0.222246    1.065070

 Total Charge           Charge          ....    0
 Multiplicity           Mult            ....    1
 Number of Electrons    NEL             ....   64
 Basis Dimension        Dim             ....  222

ORBITAL ENERGIES
----------------

  NO   OCC          E(Eh)            E(eV)
   0   2.0000     -18.996166      -516.9120
   1   2.0000     -18.926760      -515.0233
   2   2.0000     -10.150940      -276.2211
   3   2.0000     -10.090403      -274.5738
   4   2.0000     -10.040349      -273.2118
   5   2.0000     -10.033227      -273.0180
   6   2.0000     -10.028410      -272.8869
   7   2.0000     -10.021064      -272.6870
   8   2.0000      -1.070484       -29.1294
   9   2.0000      -0.974621       -26.5208
  10   2.0000      -0.771906       -21.0046
  11   2.0000      -0.740000       -20.1364
  12   2.0000      -0.680189       -18.5089
  13   2.0000      -0.622179       -16.9304
  14   2.0000      -0.565269       -15.3817
  15   2.0000      -0.519909       -14.1474
  16   2.0000      -0.472737       -12.8638
  17   2.0000      -0.451508       -12.2862
  18   2.0000      -0.447353       -12.1731
  19   2.0000      -0.419122       -11.4049
  20   2.0000      -0.411142       -11.1877
  21   2.0000      -0.391633       -10.6569
  22   2.0000      -0.369280       -10.0486
  23   2.0000      -0.367481        -9.9997
  24   2.0000      -0.353283        -9.6133
  25   2.0000      -0.341753        -9.2996
  26   2.0000      -0.323261        -8.7964
  27   2.0000      -0.311022        -8.4633
  28   2.0000      -0.306612        -8.3433
  29   2.0000      -0.301770        -8.2116
  30   2.0000      -0.270588        -7.3631
  31   2.0000      -0.235265        -6.4019
  32   0.0000      -0.014073        -0.3829
  33   0.0000       0.079273         2.1571
  34   0.0000       0.093453         2.5430
  35   0.0000       0.104169         2.8346
  36   0.0000       0.124849         3.3973

MULLIKEN ATOMIC CHARGES
-----------------------
   0 C :   -0.470909
   1 C :   -0.227803
   2 C :   -0.349003
   3 C :    0.413234
   4 O :   -0.436783
   5 O :   -0.181728
   6 C :   -0.136961
   7 C :   -0.469871
   8 H :    0.141880
   9 H :    0.150179
  10 H :    0.144930
  11 H :    0.136905
  12 H :    0.168414
  13 H :    0.166124
  14 H :    0.165433
  15 H :    0.147513
  16 H :    0.167573
  17 H :    0.172708
  18 H :    0.151360
  19 H :    0.146806
Sum of atomic charges:   -0.0000000

LOEWDIN ATOMIC CHARGES
----------------------
   0 C :   -0.421158
   1 C :   -0.291521
   2 C :   -0.230293
   3 C :    0.361054
   4 O :   -0.439262
   5 O :   -0.596014
   6 C :    0.026853
   7 C :   -0.390489
   8 H :    0.149970
   9 H :    0.152836
  10 H :    0.150537
  11 H :    0.155291
  12 H :    0.167364
  13 H :    0.180855
  14 H :    0.177159
  15 H :    0.177516
  16 H :    0.187992
  17 H :    0.165394
  18 H :    0.156864
  19 H :    0.159053

  Mayer bond orders larger than 0.100000
B(  0-C ,  1-C ) :   0.8891 B(  0-C ,  8-H ) :   0.9794 B(  0-C ,  9-H ) :   0.9740
B(  0-C , 10-H ) :   0.9883 B(  1-C ,  2-C ) :   0.9241 B(  1-C , 11-H ) :   0.9575
B(  1-C , 12-H ) :   0.9645 B(  2-C ,  3-C ) :   0.9695 B(  2-C , 13-H ) :   0.9570
B(  2-C , 14-H ) :   0.9829 B(  3-C ,  4-O ) :   1.8201 B(  3-C ,  5-O ) :   1.0562
B(  5-O ,  6-C ) :   0.8157 B(  6-C ,  7-C ) :   0.9377 B(  6-C , 15-H ) :   0.9608
B(  6-C , 16-H ) :   0.9665 B(  7-C , 17-H ) :   0.9719 B(  7-C , 18-H ) :   0.9738
B(  7-C , 19-H ) :   0.9652

Dispersion correction           -0.004935445
FINAL SINGLE POINT ENERGY      -386.236072679752

DIPOLE MOMENT
-------------

Method             : SCF
Type of density    : Electron Density
Multiplicity       :   1
Irrep              :   0
Energy             :  -386.2428554178495119 Eh
Relativity type    :
Basis              : AO
                                X                 Y                 Z
Electronic contribution:      3.685718238       3.672347278      -1.744828958
Nuclear contribution   :     -3.480712589      -4.273099579       1.409249663
                        -----------------------------------------
Total Dipole Moment    :      0.205005649      -0.600752301      -0.335579295
                        -----------------------------------------
Magnitude (a.u.)       :      0.718014001
Magnitude (Debye)      :      1.825046552

Rotational constants in cm-1:             0.166047             0.029401             0.028992
Rotational constants in MHz :          4977.963443           881.405635           869.143703

                             ****ORCA TERMINATED NORMALLY****
TOTAL RUN TIME: 0 days 0 hours 0 minutes 31 seconds 747 msec
