                         Program Version 6.0.0  -   RELEASE  -
|  1> ! r2scan-3c def2/J RI DEFGRID2 scfconv6 printgap
|  2> %output
|  3>     printlevel normal
|  4> end
|  5> %cpcm
|  6>     smd true
|  7>     smdsolvent "water"
|  8> end
|  9> * xyz 0 1
| 10> C -3.5417014645 -0.8125260094 0.057184455
| 11> C -2.1585286858 -0.3718755536 0.51771635
| 12> C -1.2284186478 -0.1163703637 -0.6722366294
| 13> C 0.0934731774 0.4411542063 -0.2138341891
| 14> O 0.2236605266 1.378233155 0.5461404132
| 15> O 1.1136263016 -0.2154483985 -0.7525214726
| 16> C 2.449928436 0.1891977598 -0.4079880375
| 17> C 2.9170054204 -0.4947302084 0.8677457755
| 18> H -3.4741344368 -1.7251355312 -0.5294982628
| 19> H -4.1806172923 -1.0004184735 0.9156034549
| 20> H -4.0038212701 -0.0418303626 -0.5544148431
| 21> H -1.7208841676 -1.1417442905 1.1562803765
| 22> H -2.2317487446 0.5452772641 1.1053637726
| 23> H -1.6868294419 0.6252719704 -1.3300799338
| 24> H -1.0479527857 -1.0294756612 -1.2380454324
| 25> H 3.0561970372 -0.1084506346 -1.2639121018
| 26> H 2.4649701879 1.2768660257 -0.2895868885
| 27> H 2.3012139268 -0.1774976397 1.7064772087
| 28> H 2.8437557587 -1.5737290341 0.7621360703
| 29> H 3.9485931205 -0.2222458003 1.0650699361
| 30> *
| 31>
| 32>                          ****END OF INPUT****

CARTESIAN COORDINATES (ANGSTROEM)
---------------------------------
  C     -3.541701   -0.812526    0.057184
  C     -2.158529   -0.371876    0.517716
  C     -1.228419   -0.116370   -0.672237
  C      0.093473    0.441154   -0.213834
  O      0.223661    1.378233    0.546140
  O      1.113626   -0.215448   -0.752521
  C      2.449928    0.189198   -0.407988
  C      2.917005   -0.494730    0.867746
  H     -3.474134   -1.725136   -0.529498
  H     -4.180617   -1.000418    0.915603
  H     -4.003821   -0.041830   -0.554415
  H     -1.720884   -1.141744    1.156280
  H     -2.231749    0.545277    1.105364
  H     -1.686829    0.625272   -1.330080
  H     -1.047953   -1.029476   -1.238045
  H      3.056197   -0.108451   -1.263912
  H      2.464970    1.276866   -0.289587
  H      2.301214   -0.177498    1.706477
  H      2.843756   -1.573729    0.762136
  H      3.948593   -0.222246    1.065070

 Total Charge           Charge          ....    0
 Multiplicity           Mult            ....    1
 Number of Electrons    NEL             ....   64
 Basis Dimension        Dim             ....  222

ORBITAL ENERGIES
----------------

  NO   OCC          E(Eh)            E(eV)
   0   2.0000     -19.002342      -517.0800
   1   2.0000     -18.942795      -515.4596
   2   2.0000     -10.161854      -276.5181
   3   2.0000     -10.082922      -274.3703
   4   2.0000     -10.034680      -273.0575
   5   2.0000     -10.027212      -272.8543
   6   2.0000     -10.018264      -272.6108
   7   2.0000     -10.011209      -272.4189
   8   2.0000      -1.078272       -29.3413
   9   2.0000      -0.988525       -26.8991
  10   2.0000      -0.767357       -20.8808
  11   2.0000      -0.733483       -19.9591
  12   2.0000      -0.674105       -18.3433
  13   2.0000      -0.617080       -16.7916
  14   2.0000      -0.558731       -15.2038
  15   2.0000      -0.518320       -14.1042
  16   2.0000      -0.473144       -12.8749
  17   2.0000      -0.457898       -12.4600
  18   2.0000      -0.447715       -12.1829
  19   2.0000      -0.420802       -11.4506
  20   2.0000      -0.407810       -11.0971
  21   2.0000      -0.384929       -10.4745
  22   2.0000      -0.365414        -9.9434
  23   2.0000      -0.360400        -9.8070
  24   2.0000      -0.349631        -9.5139
  25   2.0000      -0.338386        -9.2080
  26   2.0000      -0.317576        -8.6417
  27   2.0000      -0.305857        -8.3228
  28   2.0000      -0.303515        -8.2591
  29   2.0000      -0.295763        -8.0481
  30   2.0000      -0.278403        -7.5757
  31   2.0000      -0.251463        -6.8427
  32   0.0000      -0.022299        -0.6068
  33   0.0000       0.081077         2.2062
  34   0.0000       0.100429         2.7328
  35   0.0000       0.113611         3.0915
  36   0.0000       0.133619         3.6359

MULLIKEN ATOMIC CHARGES
-----------------------
   0 C :   -0.515920
   1 C :   -0.227061
   2 C :   -0.366888
   3 C :    0.454481
   4 O :   -0.519421
   5 O :   -0.201575
   6 C :   -0.142726
   7 C :   -0.494429
   8 H :    0.156949
   9 H :    0.160847
  10 H :    0.158807
  11 H :    0.155164
  12 H :    0.157597
  13 H :    0.195211
  14 H :    0.180009
  15 H :    0.173443
  16 H :    0.171355
  17 H :    0.168289
  18 H :    0.165631
  19 H :    0.170237
Sum of atomic charges:   -0.0000000

LOEWDIN ATOMIC CHARGES
----------------------
   0 C :   -0.426263
   1 C :   -0.291600
   2 C :   -0.227369
   3 C :    0.371017
   4 O :   -0.498852
   5 O :   -0.598799
   6 C :    0.031501
   7 C :   -0.393199
   8 H :    0.154656
   9 H :    0.155596
  10 H :    0.154374
  11 H :    0.160318
  12 H :    0.162583
  13 H :    0.191368
  14 H :    0.184547
  15 H :    0.188855
  16 H :    0.189212
  17 H :    0.162433
  18 H :    0.161930
  19 H :    0.167693

  Mayer bond orders larger than 0.100000
B(  0-C ,  1-C ) :   0.8865 B(  0-C ,  8-H ) :   0.9773 B(  0-C ,  9-H ) :   0.9709
B(  0-C , 10-H ) :   0.9849 B(  1-C ,  2-C ) :   0.9108 B(  1-C , 11-H ) :   0.9571
B(  1-C , 12-H ) :   0.9654 B(  2-C ,  3-C ) :   0.9713 B(  2-C , 13-H ) :   0.9460
B(  2-C , 14-H ) :   0.9752 B(  3-C ,  4-O ) :   1.7568 B(  3-C ,  5-O ) :   1.0797
B(  5-O ,  6-C ) :   0.7975 B(  6-C ,  7-C ) :   0.9366 B(  6-C , 15-H ) :   0.9514
B(  6-C , 16-H ) :   0.9625 B(  7-C , 17-H ) :   0.9697 B(  7-C , 18-H ) :   0.9698
B(  7-C , 19-H ) :   0.9602

Dispersion correction           -0.004935445
FINAL SINGLE POINT ENERGY      -386.240879248963

DIPOLE MOMENT
-------------

Method             : SCF
Type of density    : Electron Density
Multiplicity       :   1
Irrep              :   0
Energy             :  -386.2476619870610648 Eh
Relativity type    :
Basis              : AO
                                X                 Y                 Z
Electronic contribution:      3.756385837       3.395909209      -1.973169679
Nuclear contribution   :     -3.480712589      -4.273099579       1.409249663
                        -----------------------------------------
Total Dipole Moment    :      0.275673248      -0.877190371      -0.563920015
                        -----------------------------------------
Magnitude (a.u.)       :      1.078640102
Magnitude (Debye)      :      2.741685254

Rotational constants in cm-1:             0.166047             0.029401             0.028992
Rotational constants in MHz :          4977.963443           881.405635           869.143703

                             ****ORCA TERMINATED NORMALLY****
TOTAL RUN TIME: 0 days 0 hours 0 minutes 37 seconds 578 msec
