                         Program Version 6.0.0  -   RELEASE  -
|  1> ! pbe def2-sv(p) def2/J RI DEFGRID1 loosescf d4 GCP(DFT/SV(P)) printgap
|  2> %output
|  3>     printlevel normal
|  4> end
|  5> * xyz 0 1
|  6> C -2.0789767162 -1.4335447959 0.5352373774
|  7> C -2.0966184234 -0.4311391692 -0.6124319569
|  8> C -1.5005104147 0.9167949629 -0.1948506683
|  9> C -0.0399068117 0.8075912308 0.1629519334
| 10> O 0.4499416601 1.2353548644 1.1885200972
| 11> O 0.662372586 0.2113201061 -0.791471931
| 12> C 2.0718116857 0.0251627837 -0.5880819688
| 13> C 2.3518032393 -1.2295633596 0.225223354
| 14> H -2.5081634187 -2.3805522429 0.2192858062
| 15> H -1.0596860317 -1.6125474868 0.872008087
| 16> H -2.6524790103 -1.0580121896 1.3795826501
| 17> H -3.1246706362 -0.269574689 -0.938313431
| 18> H -1.5275105475 -0.8245974376 -1.455271969
| 19> H -2.0264612627 1.3248047342 0.6686924018
| 20> H -1.5795170809 1.6225816187 -1.0236484456
| 21> H 2.4843312946 -0.0537929193 -1.5942465466
| 22> H 2.4715973525 0.9083043539 -0.0803279592
| 23> H 1.9028349289 -2.0956532425 -0.2538569107
| 24> H 3.4240549341 -1.3775181212 0.3007746141
| 25> H 1.9401134854 -1.1233765707 1.2267644969
| 26> *
| 27>
| 28>                          ****END OF INPUT****

CARTESIAN COORDINATES (ANGSTROEM)
---------------------------------
  C     -2.078977   -1.433545    0.535237
  C     -2.096618   -0.431139   -0.612432
  C     -1.500510    0.916795   -0.194851
  C     -0.039907    0.807591    0.162952
  O      0.449942    1.235355    1.188520
  O      0.662373    0.211320   -0.791472
  C      2.071812    0.025163   -0.588082
  C      2.351803   -1.229563    0.225223
  H     -2.508163   -2.380552    0.219286
  H     -1.059686   -1.612547    0.872008
  H     -2.652479   -1.058012    1.379583
  H     -3.124671   -0.269575   -0.938313
  H     -1.527511   -0.824597   -1.455272
  H     -2.026461    1.324805    0.668692
  H     -1.579517    1.622582   -1.023648
  H      2.484331   -0.053793   -1.594247
  H      2.471597    0.908304   -0.080328
  H      1.902835   -2.095653   -0.253857
  H      3.424055   -1.377518    0.300775
  H      1.940113   -1.123377    1.226764

 Total Charge           Charge          ....    0
 Multiplicity           Mult            ....    1
 Number of Electrons    NEL             ....   64
 Basis Dimension        Dim             ....  136

ORBITAL ENERGIES
----------------

  NO   OCC          E(Eh)            E(eV)
   0   2.0000     -18.797701      -511.5115
   1   2.0000     -18.729870      -509.6657
   2   2.0000     -10.004503      -272.2364
   3   2.0000      -9.947204      -270.6772
   4   2.0000      -9.896431      -269.2956
   5   2.0000      -9.892410      -269.1862
   6   2.0000      -9.887091      -269.0414
   7   2.0000      -9.878363      -268.8039
   8   2.0000      -1.004551       -27.3352
   9   2.0000      -0.906974       -24.6800
  10   2.0000      -0.730188       -19.8694
  11   2.0000      -0.694838       -18.9075
  12   2.0000      -0.636224       -17.3125
  13   2.0000      -0.591059       -16.0835
  14   2.0000      -0.537121       -14.6158
  15   2.0000      -0.494972       -13.4689
  16   2.0000      -0.452459       -12.3120
  17   2.0000      -0.435670       -11.8552
  18   2.0000      -0.408546       -11.1171
  19   2.0000      -0.404398       -11.0042
  20   2.0000      -0.393712       -10.7134
  21   2.0000      -0.376485       -10.2447
  22   2.0000      -0.358856        -9.7650
  23   2.0000      -0.352033        -9.5793
  24   2.0000      -0.339092        -9.2272
  25   2.0000      -0.326387        -8.8814
  26   2.0000      -0.311888        -8.4869
  27   2.0000      -0.299778        -8.1574
  28   2.0000      -0.298509        -8.1229
  29   2.0000      -0.288642        -7.8544
  30   2.0000      -0.255639        -6.9563
  31   2.0000      -0.213351        -5.8056
  32   0.0000      -0.019624        -0.5340
  33   0.0000       0.035197         0.9578
  34   0.0000       0.054823         1.4918
  35   0.0000       0.069624         1.8946
  36   0.0000       0.082116         2.2345

MULLIKEN ATOMIC CHARGES
-----------------------
   0 C :   -0.291860
   1 C :   -0.205662
   2 C :   -0.113290
   3 C :    0.084567
   4 O :   -0.204592
   5 O :   -0.241787
   6 C :   -0.011632
   7 C :   -0.310420
   8 H :    0.106189
   9 H :    0.117559
  10 H :    0.102990
  11 H :    0.091675
  12 H :    0.103467
  13 H :    0.097654
  14 H :    0.110697
  15 H :    0.100517
  16 H :    0.106917
  17 H :    0.114075
  18 H :    0.112299
  19 H :    0.130636
Sum of atomic charges:   -0.0000000

LOEWDIN ATOMIC CHARGES
----------------------
   0 C :   -0.342480
   1 C :   -0.232441
   2 C :   -0.242915
   3 C :    0.034089
   4 O :   -0.170190
   5 O :   -0.067449
   6 C :   -0.112019
   7 C :   -0.358041
   8 H :    0.121084
   9 H :    0.119256
  10 H :    0.120014
  11 H :    0.118342
  12 H :    0.120145
  13 H :    0.132217
  14 H :    0.140338
  15 H :    0.116494
  16 H :    0.119115
  17 H :    0.123739
  18 H :    0.130384
  19 H :    0.130317

  Mayer bond orders larger than 0.100000
B(  0-C ,  1-C ) :   1.1523 B(  0-C ,  8-H ) :   0.9514 B(  0-C ,  9-H ) :   0.9477
B(  0-C , 10-H ) :   0.9534 B(  1-C ,  2-C ) :   1.1094 B(  1-C , 11-H ) :   0.9257
B(  1-C , 12-H ) :   0.9212 B(  2-C ,  3-C ) :   1.0347 B(  2-C , 13-H ) :   0.9123
B(  2-C , 14-H ) :   0.8913 B(  3-C ,  4-O ) :   2.0568 B(  3-C ,  5-O ) :   1.1894
B(  5-O ,  6-C ) :   0.9270 B(  6-C ,  7-C ) :   1.1733 B(  6-C , 15-H ) :   0.9372
B(  6-C , 16-H ) :   0.9152 B(  7-C , 17-H ) :   0.9475 B(  7-C , 18-H ) :   0.9434
B(  7-C , 19-H ) :   0.9429

Dispersion correction           -0.015687450
FINAL SINGLE POINT ENERGY      -385.458016372236

DIPOLE MOMENT
-------------

Method             : SCF
Type of density    : Electron Density
Multiplicity       :   1
Irrep              :   0
Energy             :  -385.5328813410148427 Eh
Relativity type    :
Basis              : AO
                                X                 Y                 Z
Electronic contribution:      2.133319872       6.051679227      -0.000853944
Nuclear contribution   :     -2.099593938      -6.489363614      -0.630712277
                        -----------------------------------------
Total Dipole Moment    :      0.033725934      -0.437684388      -0.631566221
                        -----------------------------------------
Magnitude (a.u.)       :      0.769143000
Magnitude (Debye)      :      1.955006138

Rotational constants in cm-1:             0.099947             0.044134             0.038558
Rotational constants in MHz :          2996.337748          1323.095978          1155.949491

                             ****ORCA TERMINATED NORMALLY****
TOTAL RUN TIME: 0 days 0 hours 0 minutes 10 seconds 976 msec
