                         Program Version 6.0.0  -   RELEASE  -
|  1> ! pbe def2-sv(p) def2/J RI DEFGRID1 loosescf d4 GCP(DFT/SV(P)) printgap
|  2> %output
|  3>     printlevel normal
|  4> end
|  5> * xyz 0 1
|  6> C 3.3035558085 0.3294008593 -0.1800790782
|  7> C 2.2834551737 -0.6647099617 0.3643798601
|  8> C 0.9058542711 -0.5300299551 -0.2846797996
|  9> C 0.2083253715 0.7850022273 0.0602170015
| 10> C -1.1918377198 0.8698890705 -0.5191765161
| 11> Cl -2.2901961842 -0.3402965021 0.2392485056
| 12> H 3.0280489771 1.3501766695 0.0698901668
| 13> H 3.3761414921 0.2444453967 -1.2619128772
| 14> H 4.2841947807 0.1306117794 0.2454428656
| 15> H 2.6497994072 -1.6782957738 0.1874074054
| 16> H 2.1876743796 -0.5334966517 1.4443404331
| 17> H 0.2772987083 -1.3572591526 0.0524238159
| 18> H 1.0084513926 -0.610970559 -1.3689864173
| 19> H 0.77434989 1.623096898 -0.3486494839
| 20> H 0.1617272732 0.9002599786 1.1445505775
| 21> H -1.6460981348 1.8402523439 -0.3287743824
| 22> H -1.1978401993 0.6521671965 -1.5857689671
| 23> *
| 24>
| 25>                          ****END OF INPUT****

CARTESIAN COORDINATES (ANGSTROEM)
---------------------------------
  C      3.303556    0.329401   -0.180079
  C      2.283455   -0.664710    0.364380
  C      0.905854   -0.530030   -0.284680
  C      0.208325    0.785002    0.060217
  C     -1.191838    0.869889   -0.519177
  Cl    -2.290196   -0.340297    0.239249
  H      3.028049    1.350177    0.069890
  H      3.376141    0.244445   -1.261913
  H      4.284195    0.130612    0.245443
  H      2.649799   -1.678296    0.187407
  H      2.187674   -0.533497    1.444340
  H      0.277299   -1.357259    0.052424
  H      1.008451   -0.610971   -1.368986
  H      0.774350    1.623097   -0.348649
  H      0.161727    0.900260    1.144551
  H     -1.646098    1.840252   -0.328774
  H     -1.197840    0.652167   -1.585769

 Total Charge           Charge          ....    0
 Multiplicity           Mult            ....    1
 Number of Electrons    NEL             ....   58
 Basis Dimension        Dim             ....  110

ORBITAL ENERGIES
----------------

  NO   OCC          E(Eh)            E(eV)
   0   2.0000    -100.615389     -2737.8839
   1   2.0000      -9.939632      -270.4711
   2   2.0000      -9.895344      -269.2660
   3   2.0000      -9.884518      -268.9714
   4   2.0000      -9.883472      -268.9429
   5   2.0000      -9.874764      -268.7060
   6   2.0000      -9.151059      -249.0130
   7   2.0000      -6.982568      -190.0053
   8   2.0000      -6.970842      -189.6862
   9   2.0000      -6.970620      -189.6802
  10   2.0000      -0.775373       -21.0990
  11   2.0000      -0.719468       -19.5777
  12   2.0000      -0.664888       -18.0925
  13   2.0000      -0.602631       -16.3984
  14   2.0000      -0.543639       -14.7932
  15   2.0000      -0.508206       -13.8290
  16   2.0000      -0.428812       -11.6686
  17   2.0000      -0.416166       -11.3245
  18   2.0000      -0.410163       -11.1611
  19   2.0000      -0.378594       -10.3021
  20   2.0000      -0.361451        -9.8356
  21   2.0000      -0.349004        -9.4969
  22   2.0000      -0.332288        -9.0420
  23   2.0000      -0.316016        -8.5992
  24   2.0000      -0.290252        -7.8982
  25   2.0000      -0.287725        -7.8294
  26   2.0000      -0.283613        -7.7175
  27   2.0000      -0.244427        -6.6512
  28   2.0000      -0.241139        -6.5617
  29   0.0000       0.012062         0.3282
  30   0.0000       0.036884         1.0037
  31   0.0000       0.054139         1.4732
  32   0.0000       0.061993         1.6869
  33   0.0000       0.076415         2.0793

MULLIKEN ATOMIC CHARGES
-----------------------
   0 C :   -0.295059
   1 C :   -0.158497
   2 C :   -0.179451
   3 C :   -0.178760
   4 C :   -0.148275
   5 Cl:   -0.157114
   6 H :    0.107075
   7 H :    0.097522
   8 H :    0.104678
   9 H :    0.087763
  10 H :    0.085081
  11 H :    0.094320
  12 H :    0.077752
  13 H :    0.099970
  14 H :    0.096420
  15 H :    0.135869
  16 H :    0.130705
Sum of atomic charges:   -0.0000000

LOEWDIN ATOMIC CHARGES
----------------------
   0 C :   -0.344006
   1 C :   -0.232961
   2 C :   -0.233524
   3 C :   -0.249992
   4 C :   -0.266824
   5 Cl:    0.019942
   6 H :    0.115474
   7 H :    0.116643
   8 H :    0.120464
   9 H :    0.117206
  10 H :    0.115333
  11 H :    0.114948
  12 H :    0.112816
  13 H :    0.124499
  14 H :    0.121638
  15 H :    0.124384
  16 H :    0.123959

  Mayer bond orders larger than 0.100000
B(  0-C ,  1-C ) :   1.1491 B(  0-C ,  6-H ) :   0.9519 B(  0-C ,  7-H ) :   0.9552
B(  0-C ,  8-H ) :   0.9519 B(  1-C ,  2-C ) :   1.1295 B(  1-C ,  9-H ) :   0.9280
B(  1-C , 10-H ) :   0.9255 B(  2-C ,  3-C ) :   1.1244 B(  2-C , 11-H ) :   0.9139
B(  2-C , 12-H ) :   0.9219 B(  3-C ,  4-C ) :   1.1062 B(  3-C , 13-H ) :   0.9004
B(  3-C , 14-H ) :   0.9175 B(  4-C ,  5-Cl) :   1.0303 B(  4-C , 15-H ) :   0.9316
B(  4-C , 16-H ) :   0.9258

Dispersion correction           -0.013028157
FINAL SINGLE POINT ENERGY      -656.512716395863

DIPOLE MOMENT
-------------

Method             : SCF
Type of density    : Electron Density
Multiplicity       :   1
Irrep              :   0
Energy             :  -656.5704461362721531 Eh
Relativity type    :
Basis              : AO
                                X                 Y                 Z
Electronic contribution:    -16.551079823      -2.432330207       1.717414740
Nuclear contribution   :     17.056137709       2.859385592      -1.962949700
                        -----------------------------------------
Total Dipole Moment    :      0.505057886       0.427055385      -0.245534960
                        -----------------------------------------
Magnitude (a.u.)       :      0.705512003
Magnitude (Debye)      :      1.793268999

Rotational constants in cm-1:             0.267747             0.035250             0.032826
Rotational constants in MHz :          8026.846850          1056.765911           984.098028

                             ****ORCA TERMINATED NORMALLY****
TOTAL RUN TIME: 0 days 0 hours 0 minutes 7 seconds 128 msec
