                         Program Version 6.0.0  -   RELEASE  -
|  1> ! r2scan-3c def2/J RI DEFGRID2 scfconv6 printgap
|  2> %output
|  3>     printlevel normal
|  4> end
|  5> * xyz 0 1
|  6> C -2.0789767162 -1.4335447959 0.5352373774
|  7> C -2.0966184234 -0.4311391692 -0.6124319569
|  8> C -1.5005104147 0.9167949629 -0.1948506683
|  9> C -0.0399068117 0.8075912308 0.1629519334
| 10> O 0.4499416601 1.2353548644 1.1885200972
| 11> O 0.662372586 0.2113201061 -0.791471931
| 12> C 2.0718116857 0.0251627837 -0.5880819688
| 13> C 2.3518032393 -1.2295633596 0.225223354
| 14> H -2.5081634187 -2.3805522429 0.2192858062
| 15> H -1.0596860317 -1.6125474868 0.872008087
| 16> H -2.6524790103 -1.0580121896 1.3795826501
| 17> H -3.1246706362 -0.269574689 -0.938313431
| 18> H -1.5275105475 -0.8245974376 -1.455271969
| 19> H -2.0264612627 1.3248047342 0.6686924018
| 20> H -1.5795170809 1.6225816187 -1.0236484456
| 21> H 2.4843312946 -0.0537929193 -1.5942465466
| 22> H 2.4715973525 0.9083043539 -0.0803279592
| 23> H 1.9028349289 -2.0956532425 -0.2538569107
| 24> H 3.4240549341 -1.3775181212 0.3007746141
| 25> H 1.9401134854 -1.1233765707 1.2267644969
| 26> *
| 27>
| 28>                          ****END OF INPUT****

CARTESIAN COORDINATES (ANGSTROEM)
---------------------------------
  C     -2.078977   -1.433545    0.535237
  C     -2.096618   -0.431139   -0.612432
  C     -1.500510    0.916795   -0.194851
  C     -0.039907    0.807591    0.162952
  O      0.449942    1.235355    1.188520
  O      0.662373    0.211320   -0.791472
  C      2.071812    0.025163   -0.588082
  C      2.351803   -1.229563    0.225223
  H     -2.508163   -2.380552    0.219286
  H     -1.059686   -1.612547    0.872008
  H     -2.652479   -1.058012    1.379583
  H     -3.124671   -0.269575   -0.938313
  H     -1.527511   -0.824597   -1.455272
  H     -2.026461    1.324805    0.668692
  H     -1.579517    1.622582   -1.023648
  H      2.484331   -0.053793   -1.594247
  H      2.471597    0.908304   -0.080328
  H      1.902835   -2.095653   -0.253857
  H      3.424055   -1.377518    0.300775
  H      1.940113   -1.123377    1.226764

 Total Charge           Charge          ....    0
 Multiplicity           Mult            ....    1
 Number of Electrons    NEL             ....   64
 Basis Dimension        Dim             ....  222

ORBITAL ENERGIES
----------------

  NO   OCC          E(Eh)            E(eV)
   0   2.0000     -18.996459      -516.9199
   1   2.0000     -18.926713      -515.0221
   2   2.0000     -10.151229      -276.2290
   3   2.0000     -10.091813      -274.6122
   4   2.0000     -10.040893      -273.2266
   5   2.0000     -10.035452      -273.0785
   6   2.0000     -10.028977      -272.9023
   7   2.0000     -10.020724      -272.6777
   8   2.0000      -1.071644       -29.1609
   9   2.0000      -0.974080       -26.5061
  10   2.0000      -0.775690       -21.1076
  11   2.0000      -0.737894       -20.0791
  12   2.0000      -0.677588       -18.4381
  13   2.0000      -0.624653       -16.9977
  14   2.0000      -0.571296       -15.5458
  15   2.0000      -0.521362       -14.1870
  16   2.0000      -0.472568       -12.8592
  17   2.0000      -0.456000       -12.4084
  18   2.0000      -0.432541       -11.7700
  19   2.0000      -0.424960       -11.5637
  20   2.0000      -0.410290       -11.1646
  21   2.0000      -0.394133       -10.7249
  22   2.0000      -0.373739       -10.1700
  23   2.0000      -0.368037       -10.0148
  24   2.0000      -0.352122        -9.5817
  25   2.0000      -0.340015        -9.2523
  26   2.0000      -0.324750        -8.8369
  27   2.0000      -0.312802        -8.5118
  28   2.0000      -0.310684        -8.4541
  29   2.0000      -0.303535        -8.2596
  30   2.0000      -0.271188        -7.3794
  31   2.0000      -0.231594        -6.3020
  32   0.0000      -0.014724        -0.4007
  33   0.0000       0.073682         2.0050
  34   0.0000       0.086937         2.3657
  35   0.0000       0.107470         2.9244
  36   0.0000       0.119515         3.2522

MULLIKEN ATOMIC CHARGES
-----------------------
   0 C :   -0.483146
   1 C :   -0.213034
   2 C :   -0.334284
   3 C :    0.362617
   4 O :   -0.424732
   5 O :   -0.168710
   6 C :   -0.128892
   7 C :   -0.479322
   8 H :    0.148203
   9 H :    0.151279
  10 H :    0.148685
  11 H :    0.143470
  12 H :    0.151905
  13 H :    0.170799
  14 H :    0.163142
  15 H :    0.147988
  16 H :    0.166784
  17 H :    0.152389
  18 H :    0.147684
  19 H :    0.177176
Sum of atomic charges:    0.0000000

LOEWDIN ATOMIC CHARGES
----------------------
   0 C :   -0.414806
   1 C :   -0.295396
   2 C :   -0.230085
   3 C :    0.353332
   4 O :   -0.431784
   5 O :   -0.602109
   6 C :    0.028259
   7 C :   -0.392984
   8 H :    0.152413
   9 H :    0.154831
  10 H :    0.152876
  11 H :    0.152907
  12 H :    0.165562
  13 H :    0.178011
  14 H :    0.180912
  15 H :    0.177783
  16 H :    0.187762
  17 H :    0.156750
  18 H :    0.159474
  19 H :    0.166290

  Mayer bond orders larger than 0.100000
B(  0-C ,  1-C ) :   0.9117 B(  0-C ,  8-H ) :   0.9703 B(  0-C ,  9-H ) :   0.9706
B(  0-C , 10-H ) :   0.9787 B(  1-C ,  2-C ) :   0.8882 B(  1-C , 11-H ) :   0.9618
B(  1-C , 12-H ) :   0.9699 B(  2-C ,  3-C ) :   0.9675 B(  2-C , 13-H ) :   1.0055
B(  2-C , 14-H ) :   0.9382 B(  3-C ,  4-O ) :   1.8468 B(  3-C ,  5-O ) :   1.0383
B(  5-O ,  6-C ) :   0.8241 B(  6-C ,  7-C ) :   0.9279 B(  6-C , 15-H ) :   0.9622
B(  6-C , 16-H ) :   0.9690 B(  7-C , 17-H ) :   0.9732 B(  7-C , 18-H ) :   0.9641
B(  7-C , 19-H ) :   0.9720

Dispersion correction           -0.005347598
FINAL SINGLE POINT ENERGY      -386.236234879473

DIPOLE MOMENT
-------------

Method             : SCF
Type of density    : Electron Density
Multiplicity       :   1
Irrep              :   0
Energy             :  -386.2426252145328931 Eh
Relativity type    :
Basis              : AO
                                X                 Y                 Z
Electronic contribution:      2.075589592       6.006420265      -0.070507100
Nuclear contribution   :     -2.099593938      -6.489363614      -0.630712277
                        -----------------------------------------
Total Dipole Moment    :     -0.024004346      -0.482943350      -0.701219378
                        -----------------------------------------
Magnitude (a.u.)       :      0.851774092
Magnitude (Debye)      :      2.165037683

Rotational constants in cm-1:             0.099947             0.044134             0.038558
Rotational constants in MHz :          2996.337748          1323.095978          1155.949491

                             ****ORCA TERMINATED NORMALLY****
TOTAL RUN TIME: 0 days 0 hours 0 minutes 31 seconds 661 msec
