                         Program Version 6.0.0  -   RELEASE  -
|  1> ! r2scan-3c def2/J RI DEFGRID2 scfconv6 printgap
|  2> %output
|  3>     printlevel normal
|  4> end
|  5> %cpcm
|  6>     smd true
|  7>     smdsolvent "water"
|  8> end
|  9> * xyz 0 1
| 10> C -2.0789767162 -1.4335447959 0.5352373774
| 11> C -2.0966184234 -0.4311391692 -0.6124319569
| 12> C -1.5005104147 0.9167949629 -0.1948506683
| 13> C -0.0399068117 0.8075912308 0.1629519334
| 14> O 0.4499416601 1.2353548644 1.1885200972
| 15> O 0.662372586 0.2113201061 -0.791471931
| 16> C 2.0718116857 0.0251627837 -0.5880819688
| 17> C 2.3518032393 -1.2295633596 0.225223354
| 18> H -2.5081634187 -2.3805522429 0.2192858062
| 19> H -1.0596860317 -1.6125474868 0.872008087
| 20> H -2.6524790103 -1.0580121896 1.3795826501
| 21> H -3.1246706362 -0.269574689 -0.938313431
| 22> H -1.5275105475 -0.8245974376 -1.455271969
| 23> H -2.0264612627 1.3248047342 0.6686924018
| 24> H -1.5795170809 1.6225816187 -1.0236484456
| 25> H 2.4843312946 -0.0537929193 -1.5942465466
| 26> H 2.4715973525 0.9083043539 -0.0803279592
| 27> H 1.9028349289 -2.0956532425 -0.2538569107
| 28> H 3.4240549341 -1.3775181212 0.3007746141
| 29> H 1.9401134854 -1.1233765707 1.2267644969
| 30> *
| 31>
| 32>                          ****END OF INPUT****

CARTESIAN COORDINATES (ANGSTROEM)
---------------------------------
  C     -2.078977   -1.433545    0.535237
  C     -2.096618   -0.431139   -0.612432
  C     -1.500510    0.916795   -0.194851
  C     -0.039907    0.807591    0.162952
  O      0.449942    1.235355    1.188520
  O      0.662373    0.211320   -0.791472
  C      2.071812    0.025163   -0.588082
  C      2.351803   -1.229563    0.225223
  H     -2.508163   -2.380552    0.219286
  H     -1.059686   -1.612547    0.872008
  H     -2.652479   -1.058012    1.379583
  H     -3.124671   -0.269575   -0.938313
  H     -1.527511   -0.824597   -1.455272
  H     -2.026461    1.324805    0.668692
  H     -1.579517    1.622582   -1.023648
  H      2.484331   -0.053793   -1.594247
  H      2.471597    0.908304   -0.080328
  H      1.902835   -2.095653   -0.253857
  H      3.424055   -1.377518    0.300775
  H      1.940113   -1.123377    1.226764

 Total Charge           Charge          ....    0
 Multiplicity           Mult            ....    1
 Number of Electrons    NEL             ....   64
 Basis Dimension        Dim             ....  222

ORBITAL ENERGIES
----------------

  NO   OCC          E(Eh)            E(eV)
   0   2.0000     -19.001705      -517.0627
   1   2.0000     -18.942842      -515.4609
   2   2.0000     -10.162059      -276.5237
   3   2.0000     -10.083595      -274.3886
   4   2.0000     -10.035316      -273.0748
   5   2.0000     -10.027229      -272.8548
   6   2.0000     -10.018189      -272.6088
   7   2.0000     -10.011499      -272.4267
   8   2.0000      -1.078716       -29.3533
   9   2.0000      -0.988015       -26.8853
  10   2.0000      -0.770567       -20.9682
  11   2.0000      -0.730452       -19.8766
  12   2.0000      -0.671522       -18.2730
  13   2.0000      -0.619115       -16.8470
  14   2.0000      -0.564939       -15.3728
  15   2.0000      -0.518555       -14.1106
  16   2.0000      -0.469674       -12.7805
  17   2.0000      -0.460698       -12.5362
  18   2.0000      -0.443806       -12.0766
  19   2.0000      -0.416837       -11.3427
  20   2.0000      -0.404424       -11.0049
  21   2.0000      -0.390676       -10.6308
  22   2.0000      -0.368371       -10.0239
  23   2.0000      -0.362938        -9.8760
  24   2.0000      -0.349292        -9.5047
  25   2.0000      -0.335743        -9.1360
  26   2.0000      -0.318012        -8.6535
  27   2.0000      -0.308335        -8.3902
  28   2.0000      -0.303974        -8.2715
  29   2.0000      -0.298926        -8.1342
  30   2.0000      -0.277897        -7.5620
  31   2.0000      -0.247275        -6.7287
  32   0.0000      -0.023038        -0.6269
  33   0.0000       0.077791         2.1168
  34   0.0000       0.094775         2.5790
  35   0.0000       0.114784         3.1234
  36   0.0000       0.129182         3.5152

MULLIKEN ATOMIC CHARGES
-----------------------
   0 C :   -0.526903
   1 C :   -0.212323
   2 C :   -0.353020
   3 C :    0.400829
   4 O :   -0.510824
   5 O :   -0.185058
   6 C :   -0.138296
   7 C :   -0.499111
   8 H :    0.161790
   9 H :    0.160245
  10 H :    0.161754
  11 H :    0.160650
  12 H :    0.154213
  13 H :    0.179713
  14 H :    0.193832
  15 H :    0.174126
  16 H :    0.170600
  17 H :    0.166483
  18 H :    0.170774
  19 H :    0.170528
Sum of atomic charges:    0.0000000

LOEWDIN ATOMIC CHARGES
----------------------
   0 C :   -0.422716
   1 C :   -0.292327
   2 C :   -0.228459
   3 C :    0.362617
   4 O :   -0.493256
   5 O :   -0.602636
   6 C :    0.032730
   7 C :   -0.395163
   8 H :    0.156575
   9 H :    0.155948
  10 H :    0.155872
  11 H :    0.159739
  12 H :    0.165739
  13 H :    0.181724
  14 H :    0.192818
  15 H :    0.189175
  16 H :    0.188857
  17 H :    0.162005
  18 H :    0.167827
  19 H :    0.162931

  Mayer bond orders larger than 0.100000
B(  0-C ,  1-C ) :   0.9009 B(  0-C ,  8-H ) :   0.9666 B(  0-C ,  9-H ) :   0.9685
B(  0-C , 10-H ) :   0.9772 B(  1-C ,  2-C ) :   0.8779 B(  1-C , 11-H ) :   0.9586
B(  1-C , 12-H ) :   0.9706 B(  2-C ,  3-C ) :   0.9666 B(  2-C , 13-H ) :   1.0010
B(  2-C , 14-H ) :   0.9278 B(  3-C ,  4-O ) :   1.7753 B(  3-C ,  5-O ) :   1.0669
B(  5-O ,  6-C ) :   0.8054 B(  6-C ,  7-C ) :   0.9290 B(  6-C , 15-H ) :   0.9529
B(  6-C , 16-H ) :   0.9655 B(  7-C , 17-H ) :   0.9689 B(  7-C , 18-H ) :   0.9595
B(  7-C , 19-H ) :   0.9698

Dispersion correction           -0.005347598
FINAL SINGLE POINT ENERGY      -386.241497935105

DIPOLE MOMENT
-------------

Method             : SCF
Type of density    : Electron Density
Multiplicity       :   1
Irrep              :   0
Energy             :  -386.2478882701649923 Eh
Relativity type    :
Basis              : AO
                                X                 Y                 Z
Electronic contribution:      2.024645050       5.847944794      -0.402477060
Nuclear contribution   :     -2.099593938      -6.489363614      -0.630712277
                        -----------------------------------------
Total Dipole Moment    :     -0.074948889      -0.641418820      -1.033189337
                        -----------------------------------------
Magnitude (a.u.)       :      1.218407011
Magnitude (Debye)      :      3.096944505

Rotational constants in cm-1:             0.099947             0.044134             0.038558
Rotational constants in MHz :          2996.337748          1323.095978          1155.949491

                             ****ORCA TERMINATED NORMALLY****
TOTAL RUN TIME: 0 days 0 hours 0 minutes 39 seconds 783 msec
