                         Program Version 6.0.0  -   RELEASE  -
|  1> ! r2scan-3c def2/J RI DEFGRID2 scfconv6 printgap
|  2> %output
|  3>     printlevel normal
|  4> end
|  5> * xyz 0 1
|  6> C 1.7297390979 1.1526446966 0.6399835865
|  7> C 1.3958072968 -0.2428177619 0.094856992
|  8> C 1.6716732252 -0.3127674949 -1.4100399183
|  9> N 0.0572151277 -0.7358551335 0.4192254646
| 10> C -1.0965803116 0.1574654093 0.3493520526
| 11> C -2.2707323711 -0.5601115296 1.0173329116
| 12> C -1.4613682117 0.4944947614 -1.0962427346
| 13> H 1.5240995952 1.2086783182 1.7076587604
| 14> H 2.7841280194 1.361320491 0.480614967
| 15> H 1.1490682248 1.9183242093 0.1309052427
| 16> H 2.0763061817 -0.9589219234 0.5732703188
| 17> H 1.2011327511 0.5065172567 -1.9432707503
| 18> H 1.2946388574 -1.2505745881 -1.8062965257
| 19> H 2.7433618411 -0.2622176741 -1.5854773646
| 20> H 0.0799033305 -1.1264410014 1.354327454
| 21> H -0.9201583749 1.1030730455 0.8960058523
| 22> H -2.0497228266 -0.7751701283 2.0609071932
| 23> H -3.1630209757 0.0585715463 0.9767898163
| 24> H -2.4662622716 -1.4972609189 0.5035037486
| 25> H -1.4596091482 -0.4116447326 -1.6945660456
| 26> H -0.7612010359 1.2031143921 -1.5273760229
| 27> H -2.4528583951 0.9391285228 -1.1295044964
| 28> *
| 29>
| 30>                          ****END OF INPUT****

CARTESIAN COORDINATES (ANGSTROEM)
---------------------------------
  C      1.729739    1.152645    0.639984
  C      1.395807   -0.242818    0.094857
  C      1.671673   -0.312767   -1.410040
  N      0.057215   -0.735855    0.419225
  C     -1.096580    0.157465    0.349352
  C     -2.270732   -0.560112    1.017333
  C     -1.461368    0.494495   -1.096243
  H      1.524100    1.208678    1.707659
  H      2.784128    1.361320    0.480615
  H      1.149068    1.918324    0.130905
  H      2.076306   -0.958922    0.573270
  H      1.201133    0.506517   -1.943271
  H      1.294639   -1.250575   -1.806297
  H      2.743362   -0.262218   -1.585477
  H      0.079903   -1.126441    1.354327
  H     -0.920158    1.103073    0.896006
  H     -2.049723   -0.775170    2.060907
  H     -3.163021    0.058572    0.976790
  H     -2.466262   -1.497261    0.503504
  H     -1.459609   -0.411645   -1.694566
  H     -0.761201    1.203114   -1.527376
  H     -2.452858    0.939129   -1.129504

 Total Charge           Charge          ....    0
 Multiplicity           Mult            ....    1
 Number of Electrons    NEL             ....   58
 Basis Dimension        Dim             ....  213

ORBITAL ENERGIES
----------------

  NO   OCC          E(Eh)            E(eV)
   0   2.0000     -14.132810      -384.5733
   1   2.0000     -10.056284      -273.6454
   2   2.0000     -10.054914      -273.6081
   3   2.0000     -10.014921      -272.5199
   4   2.0000     -10.014388      -272.5053
   5   2.0000     -10.009875      -272.3825
   6   2.0000     -10.007275      -272.3118
   7   2.0000      -0.867995       -23.6193
   8   2.0000      -0.749417       -20.3927
   9   2.0000      -0.697959       -18.9924
  10   2.0000      -0.650935       -17.7128
  11   2.0000      -0.645873       -17.5751
  12   2.0000      -0.562071       -15.2947
  13   2.0000      -0.512172       -13.9369
  14   2.0000      -0.459669       -12.5082
  15   2.0000      -0.441254       -12.0071
  16   2.0000      -0.413661       -11.2563
  17   2.0000      -0.391342       -10.6490
  18   2.0000      -0.376939       -10.2570
  19   2.0000      -0.364585        -9.9209
  20   2.0000      -0.355442        -9.6721
  21   2.0000      -0.352746        -9.5987
  22   2.0000      -0.342198        -9.3117
  23   2.0000      -0.322983        -8.7888
  24   2.0000      -0.314129        -8.5479
  25   2.0000      -0.302123        -8.2212
  26   2.0000      -0.293385        -7.9834
  27   2.0000      -0.285056        -7.7568
  28   2.0000      -0.185667        -5.0523
  29   0.0000       0.066483         1.8091
  30   0.0000       0.101768         2.7692
  31   0.0000       0.114157         3.1064
  32   0.0000       0.124223         3.3803
  33   0.0000       0.129829         3.5328

MULLIKEN ATOMIC CHARGES
-----------------------
   0 C :   -0.456059
   1 C :   -0.080483
   2 C :   -0.462924
   3 N :   -0.287457
   4 C :   -0.024378
   5 C :   -0.494920
   6 C :   -0.478129
   7 H :    0.146857
   8 H :    0.146868
   9 H :    0.151467
  10 H :    0.142611
  11 H :    0.137652
  12 H :    0.162134
  13 H :    0.140633
  14 H :    0.222838
  15 H :    0.139004
  16 H :    0.134402
  17 H :    0.144992
  18 H :    0.163042
  19 H :    0.170975
  20 H :    0.140328
  21 H :    0.140547
Sum of atomic charges:   -0.0000000

LOEWDIN ATOMIC CHARGES
----------------------
   0 C :   -0.405349
   1 C :   -0.020804
   2 C :   -0.393909
   3 N :   -0.838687
   4 C :   -0.015635
   5 C :   -0.385353
   6 C :   -0.391075
   7 H :    0.154278
   8 H :    0.155913
   9 H :    0.154059
  10 H :    0.178127
  11 H :    0.151156
  12 H :    0.163637
  13 H :    0.151523
  14 H :    0.250788
  15 H :    0.156430
  16 H :    0.150563
  17 H :    0.154572
  18 H :    0.162263
  19 H :    0.163666
  20 H :    0.150198
  21 H :    0.153639

  Mayer bond orders larger than 0.100000
B(  0-C ,  1-C ) :   0.8800 B(  0-C ,  7-H ) :   0.9735 B(  0-C ,  8-H ) :   0.9670
B(  0-C ,  9-H ) :   0.9728 B(  1-C ,  2-C ) :   0.9627 B(  1-C ,  3-N ) :   0.9155
B(  1-C , 10-H ) :   0.9735 B(  2-C , 11-H ) :   0.9662 B(  2-C , 12-H ) :   0.9753
B(  2-C , 13-H ) :   0.9727 B(  3-N ,  4-C ) :   0.9057 B(  3-N , 14-H ) :   0.9144
B(  4-C ,  5-C ) :   0.9349 B(  4-C ,  6-C ) :   0.8761 B(  4-C , 15-H ) :   0.9353
B(  5-C , 16-H ) :   0.9721 B(  5-C , 17-H ) :   0.9769 B(  5-C , 18-H ) :   0.9813
B(  6-C , 19-H ) :   0.9851 B(  6-C , 20-H ) :   0.9686 B(  6-C , 21-H ) :   0.9753

Dispersion correction           -0.006196460
FINAL SINGLE POINT ENERGY      -292.314746522236

DIPOLE MOMENT
-------------

Method             : SCF
Type of density    : Electron Density
Multiplicity       :   1
Irrep              :   0
Energy             :  -292.3231012784588643 Eh
Relativity type    :
Basis              : AO
                                X                 Y                 Z
Electronic contribution:      0.475743413      -1.705686245       1.239106189
Nuclear contribution   :     -0.393897792       1.887780314      -0.938224245
                        -----------------------------------------
Total Dipole Moment    :      0.081845620       0.182094069       0.300881944
                        -----------------------------------------
Magnitude (a.u.)       :      0.361091262
Magnitude (Debye)      :      0.917821049

Rotational constants in cm-1:             0.130879             0.054702             0.049321
Rotational constants in MHz :          3923.648701          1639.919116          1478.621104

                             ****ORCA TERMINATED NORMALLY****
TOTAL RUN TIME: 0 days 0 hours 0 minutes 25 seconds 345 msec
