                         Program Version 6.0.0  -   RELEASE  -
|  1> ! r2scan-3c def2/J RI DEFGRID2 scfconv6 printgap
|  2> %output
|  3>     printlevel normal
|  4> end
|  5> %cpcm
|  6>     smd true
|  7>     smdsolvent "water"
|  8> end
|  9> * xyz 0 1
| 10> C 1.7297390979 1.1526446966 0.6399835865
| 11> C 1.3958072968 -0.2428177619 0.094856992
| 12> C 1.6716732252 -0.3127674949 -1.4100399183
| 13> N 0.0572151277 -0.7358551335 0.4192254646
| 14> C -1.0965803116 0.1574654093 0.3493520526
| 15> C -2.2707323711 -0.5601115296 1.0173329116
| 16> C -1.4613682117 0.4944947614 -1.0962427346
| 17> H 1.5240995952 1.2086783182 1.7076587604
| 18> H 2.7841280194 1.361320491 0.480614967
| 19> H 1.1490682248 1.9183242093 0.1309052427
| 20> H 2.0763061817 -0.9589219234 0.5732703188
| 21> H 1.2011327511 0.5065172567 -1.9432707503
| 22> H 1.2946388574 -1.2505745881 -1.8062965257
| 23> H 2.7433618411 -0.2622176741 -1.5854773646
| 24> H 0.0799033305 -1.1264410014 1.354327454
| 25> H -0.9201583749 1.1030730455 0.8960058523
| 26> H -2.0497228266 -0.7751701283 2.0609071932
| 27> H -3.1630209757 0.0585715463 0.9767898163
| 28> H -2.4662622716 -1.4972609189 0.5035037486
| 29> H -1.4596091482 -0.4116447326 -1.6945660456
| 30> H -0.7612010359 1.2031143921 -1.5273760229
| 31> H -2.4528583951 0.9391285228 -1.1295044964
| 32> *
| 33>
| 34>                          ****END OF INPUT****

CARTESIAN COORDINATES (ANGSTROEM)
---------------------------------
  C      1.729739    1.152645    0.639984
  C      1.395807   -0.242818    0.094857
  C      1.671673   -0.312767   -1.410040
  N      0.057215   -0.735855    0.419225
  C     -1.096580    0.157465    0.349352
  C     -2.270732   -0.560112    1.017333
  C     -1.461368    0.494495   -1.096243
  H      1.524100    1.208678    1.707659
  H      2.784128    1.361320    0.480615
  H      1.149068    1.918324    0.130905
  H      2.076306   -0.958922    0.573270
  H      1.201133    0.506517   -1.943271
  H      1.294639   -1.250575   -1.806297
  H      2.743362   -0.262218   -1.585477
  H      0.079903   -1.126441    1.354327
  H     -0.920158    1.103073    0.896006
  H     -2.049723   -0.775170    2.060907
  H     -3.163021    0.058572    0.976790
  H     -2.466262   -1.497261    0.503504
  H     -1.459609   -0.411645   -1.694566
  H     -0.761201    1.203114   -1.527376
  H     -2.452858    0.939129   -1.129504

 Total Charge           Charge          ....    0
 Multiplicity           Mult            ....    1
 Number of Electrons    NEL             ....   58
 Basis Dimension        Dim             ....  213

ORBITAL ENERGIES
----------------

  NO   OCC          E(Eh)            E(eV)
   0   2.0000     -14.129436      -384.4815
   1   2.0000     -10.049430      -273.4589
   2   2.0000     -10.049013      -273.4475
   3   2.0000     -10.007576      -272.3200
   4   2.0000     -10.005439      -272.2618
   5   2.0000     -10.004191      -272.2279
   6   2.0000     -10.002706      -272.1875
   7   2.0000      -0.863111       -23.4864
   8   2.0000      -0.743298       -20.2262
   9   2.0000      -0.692045       -18.8315
  10   2.0000      -0.644705       -17.5433
  11   2.0000      -0.640005       -17.4154
  12   2.0000      -0.556257       -15.1365
  13   2.0000      -0.506234       -13.7753
  14   2.0000      -0.453135       -12.3304
  15   2.0000      -0.435563       -11.8523
  16   2.0000      -0.407723       -11.0947
  17   2.0000      -0.384500       -10.4628
  18   2.0000      -0.370285       -10.0760
  19   2.0000      -0.358282        -9.7494
  20   2.0000      -0.349005        -9.4969
  21   2.0000      -0.346803        -9.4370
  22   2.0000      -0.335982        -9.1425
  23   2.0000      -0.317076        -8.6281
  24   2.0000      -0.308382        -8.3915
  25   2.0000      -0.296226        -8.0607
  26   2.0000      -0.286817        -7.8047
  27   2.0000      -0.277878        -7.5614
  28   2.0000      -0.185333        -5.0432
  29   0.0000       0.077936         2.1207
  30   0.0000       0.110949         3.0191
  31   0.0000       0.121036         3.2935
  32   0.0000       0.130635         3.5547
  33   0.0000       0.134959         3.6724

MULLIKEN ATOMIC CHARGES
-----------------------
   0 C :   -0.506792
   1 C :   -0.050989
   2 C :   -0.516097
   3 N :   -0.355323
   4 C :   -0.014025
   5 C :   -0.531002
   6 C :   -0.519292
   7 H :    0.159280
   8 H :    0.159131
   9 H :    0.164373
  10 H :    0.158908
  11 H :    0.157022
  12 H :    0.158430
  13 H :    0.156317
  14 H :    0.271220
  15 H :    0.145682
  16 H :    0.155716
  17 H :    0.160727
  18 H :    0.161319
  19 H :    0.167114
  20 H :    0.161894
  21 H :    0.156386
Sum of atomic charges:   -0.0000000

LOEWDIN ATOMIC CHARGES
----------------------
   0 C :   -0.411195
   1 C :   -0.019077
   2 C :   -0.404091
   3 N :   -0.856881
   4 C :   -0.014482
   5 C :   -0.393290
   6 C :   -0.399954
   7 H :    0.157760
   8 H :    0.159071
   9 H :    0.157223
  10 H :    0.183149
  11 H :    0.155510
  12 H :    0.159400
  13 H :    0.155904
  14 H :    0.260420
  15 H :    0.160393
  16 H :    0.156996
  17 H :    0.159042
  18 H :    0.159914
  19 H :    0.160488
  20 H :    0.155887
  21 H :    0.157812

  Mayer bond orders larger than 0.100000
B(  0-C ,  1-C ) :   0.8788 B(  0-C ,  7-H ) :   0.9713 B(  0-C ,  8-H ) :   0.9647
B(  0-C ,  9-H ) :   0.9712 B(  1-C ,  2-C ) :   0.9359 B(  1-C ,  3-N ) :   0.9218
B(  1-C , 10-H ) :   0.9730 B(  2-C , 11-H ) :   0.9673 B(  2-C , 12-H ) :   0.9761
B(  2-C , 13-H ) :   0.9698 B(  3-N ,  4-C ) :   0.9194 B(  3-N , 14-H ) :   0.8988
B(  4-C ,  5-C ) :   0.9328 B(  4-C ,  6-C ) :   0.8662 B(  4-C , 15-H ) :   0.9400
B(  5-C , 16-H ) :   0.9687 B(  5-C , 17-H ) :   0.9738 B(  5-C , 18-H ) :   0.9788
B(  6-C , 19-H ) :   0.9823 B(  6-C , 20-H ) :   0.9673 B(  6-C , 21-H ) :   0.9726

Dispersion correction           -0.006196460
FINAL SINGLE POINT ENERGY      -292.317414380159

DIPOLE MOMENT
-------------

Method             : SCF
Type of density    : Electron Density
Multiplicity       :   1
Irrep              :   0
Energy             :  -292.3257691363813251 Eh
Relativity type    :
Basis              : AO
                                X                 Y                 Z
Electronic contribution:      0.529206575      -1.540698778       1.409201027
Nuclear contribution   :     -0.393897792       1.887780314      -0.938224245
                        -----------------------------------------
Total Dipole Moment    :      0.135308783       0.347081537       0.470976782
                        -----------------------------------------
Magnitude (a.u.)       :      0.600494121
Magnitude (Debye)      :      1.526334756

Rotational constants in cm-1:             0.130879             0.054702             0.049321
Rotational constants in MHz :          3923.648701          1639.919116          1478.621104

                             ****ORCA TERMINATED NORMALLY****
TOTAL RUN TIME: 0 days 0 hours 0 minutes 30 seconds 710 msec
