                         Program Version 6.0.0  -   RELEASE  -
|  1> ! pbe def2-sv(p) def2/J RI DEFGRID1 loosescf d4 GCP(DFT/SV(P)) printgap
|  2> %output
|  3>     printlevel normal
|  4> end
|  5> * xyz 0 1
|  6> C -3.5101728318 -0.7090976188 0.4630806123
|  7> C -2.1518288318 -0.0317668501 0.5911520306
|  8> C -1.2346821619 -0.4025130355 -0.5839087253
|  9> C 0.0915198081 0.2891077508 -0.4187849928
| 10> O 0.398496424 1.3366650548 -0.9498032319
| 11> O 0.8772141002 -0.3668688568 0.4253013279
| 12> C 2.1723044354 0.1788239583 0.7265288898
| 13> C 3.2149447929 -0.3100128262 -0.2671994046
| 14> H -4.0021735573 -0.405681831 -0.4573846208
| 15> H -3.3966477857 -1.7899347877 0.454438494
| 16> H -4.145393165 -0.4344630129 1.3006748698
| 17> H -1.6728848839 -0.3364673979 1.5234603767
| 18> H -2.2794632498 1.0526087295 0.6142945878
| 19> H -1.6836533664 -0.0785738536 -1.5223555517
| 20> H -1.0748571021 -1.4800268772 -0.5946114511
| 21> H 2.1039719252 1.2707782977 0.7084071947
| 22> H 2.3915555797 -0.1713931152 1.7357249322
| 23> H 4.1918238325 0.0615624569 0.0243076845
| 24> H 3.2339127679 -1.3963189993 -0.2850120004
| 25> H 2.9802735063 0.0569392743 -1.263949387
| 26> *
| 27>
| 28>                          ****END OF INPUT****

CARTESIAN COORDINATES (ANGSTROEM)
---------------------------------
  C     -3.510173   -0.709098    0.463081
  C     -2.151829   -0.031767    0.591152
  C     -1.234682   -0.402513   -0.583909
  C      0.091520    0.289108   -0.418785
  O      0.398496    1.336665   -0.949803
  O      0.877214   -0.366869    0.425301
  C      2.172304    0.178824    0.726529
  C      3.214945   -0.310013   -0.267199
  H     -4.002174   -0.405682   -0.457385
  H     -3.396648   -1.789935    0.454438
  H     -4.145393   -0.434463    1.300675
  H     -1.672885   -0.336467    1.523460
  H     -2.279463    1.052609    0.614295
  H     -1.683653   -0.078574   -1.522356
  H     -1.074857   -1.480027   -0.594611
  H      2.103972    1.270778    0.708407
  H      2.391556   -0.171393    1.735725
  H      4.191824    0.061562    0.024308
  H      3.233913   -1.396319   -0.285012
  H      2.980274    0.056939   -1.263949

 Total Charge           Charge          ....    0
 Multiplicity           Mult            ....    1
 Number of Electrons    NEL             ....   64
 Basis Dimension        Dim             ....  136

ORBITAL ENERGIES
----------------

  NO   OCC          E(Eh)            E(eV)
   0   2.0000     -18.796051      -511.4666
   1   2.0000     -18.729128      -509.6455
   2   2.0000     -10.002990      -272.1952
   3   2.0000      -9.945396      -270.6280
   4   2.0000      -9.895686      -269.2753
   5   2.0000      -9.895615      -269.2734
   6   2.0000      -9.886142      -269.0156
   7   2.0000      -9.880487      -268.8617
   8   2.0000      -1.002630       -27.2830
   9   2.0000      -0.906204       -24.6591
  10   2.0000      -0.729700       -19.8561
  11   2.0000      -0.696050       -18.9405
  12   2.0000      -0.639342       -17.3974
  13   2.0000      -0.587428       -15.9847
  14   2.0000      -0.534591       -14.5470
  15   2.0000      -0.496451       -13.5091
  16   2.0000      -0.452142       -12.3034
  17   2.0000      -0.432081       -11.7575
  18   2.0000      -0.418474       -11.3873
  19   2.0000      -0.404631       -11.0106
  20   2.0000      -0.388289       -10.5659
  21   2.0000      -0.375087       -10.2066
  22   2.0000      -0.359760        -9.7896
  23   2.0000      -0.346901        -9.4396
  24   2.0000      -0.341082        -9.2813
  25   2.0000      -0.326370        -8.8810
  26   2.0000      -0.315922        -8.5967
  27   2.0000      -0.301885        -8.2147
  28   2.0000      -0.298430        -8.1207
  29   2.0000      -0.287254        -7.8166
  30   2.0000      -0.253283        -6.8922
  31   2.0000      -0.213679        -5.8145
  32   0.0000      -0.017584        -0.4785
  33   0.0000       0.040896         1.1128
  34   0.0000       0.051700         1.4068
  35   0.0000       0.077689         2.1140
  36   0.0000       0.078144         2.1264

MULLIKEN ATOMIC CHARGES
-----------------------
   0 C :   -0.242133
   1 C :   -0.243422
   2 C :   -0.112847
   3 C :    0.113312
   4 O :   -0.212687
   5 O :   -0.244347
   6 C :   -0.010878
   7 C :   -0.302797
   8 H :    0.101059
   9 H :    0.098865
  10 H :    0.107012
  11 H :    0.099591
  12 H :    0.102411
  13 H :    0.097446
  14 H :    0.093801
  15 H :    0.106580
  16 H :    0.099637
  17 H :    0.111340
  18 H :    0.112232
  19 H :    0.125825
Sum of atomic charges:    0.0000000

LOEWDIN ATOMIC CHARGES
----------------------
   0 C :   -0.339001
   1 C :   -0.225660
   2 C :   -0.241613
   3 C :    0.037158
   4 O :   -0.174188
   5 O :   -0.069500
   6 C :   -0.113318
   7 C :   -0.355698
   8 H :    0.119202
   9 H :    0.118258
  10 H :    0.121810
  11 H :    0.119019
  12 H :    0.121837
  13 H :    0.132753
  14 H :    0.130191
  15 H :    0.118888
  16 H :    0.116004
  17 H :    0.129701
  18 H :    0.123851
  19 H :    0.130307

  Mayer bond orders larger than 0.100000
B(  0-C ,  1-C ) :   1.1580 B(  0-C ,  8-H ) :   0.9530 B(  0-C ,  9-H ) :   0.9534
B(  0-C , 10-H ) :   0.9516 B(  1-C ,  2-C ) :   1.1274 B(  1-C , 11-H ) :   0.9267
B(  1-C , 12-H ) :   0.9269 B(  2-C ,  3-C ) :   1.0272 B(  2-C , 13-H ) :   0.9045
B(  2-C , 14-H ) :   0.8989 B(  3-C ,  4-O ) :   2.0455 B(  3-C ,  5-O ) :   1.2007
B(  5-O ,  6-C ) :   0.9224 B(  6-C ,  7-C ) :   1.1745 B(  6-C , 15-H ) :   0.9119
B(  6-C , 16-H ) :   0.9369 B(  7-C , 17-H ) :   0.9446 B(  7-C , 18-H ) :   0.9492
B(  7-C , 19-H ) :   0.9470

Dispersion correction           -0.014719266
FINAL SINGLE POINT ENERGY      -385.457653944715

DIPOLE MOMENT
-------------

Method             : SCF
Type of density    : Electron Density
Multiplicity       :   1
Irrep              :   0
Energy             :  -385.5326046005977787 Eh
Relativity type    :
Basis              : AO
                                X                 Y                 Z
Electronic contribution:      3.216064989       2.848567555      -1.623271076
Nuclear contribution   :     -3.127258879      -3.410839220       2.091835100
                        -----------------------------------------
Total Dipole Moment    :      0.088806110      -0.562271665       0.468564024
                        -----------------------------------------
Magnitude (a.u.)       :      0.737284338
Magnitude (Debye)      :      1.874027856

Rotational constants in cm-1:             0.173018             0.030337             0.028289
Rotational constants in MHz :          5186.956268           909.468213           848.082764

                             ****ORCA TERMINATED NORMALLY****
TOTAL RUN TIME: 0 days 0 hours 0 minutes 10 seconds 638 msec
