                         Program Version 6.0.0  -   RELEASE  -
|  1> ! r2scan-3c def2/J RI DEFGRID2 scfconv6 printgap
|  2> %output
|  3>     printlevel normal
|  4> end
|  5> * xyz 0 1
|  6> C -2.0603629757 0.3901528077 0.7126523183
|  7> C -1.4878721988 -0.5937371732 -0.3019012095
|  8> C -0.2388444647 -0.042993842 -0.9796049429
|  9> N 0.8991852415 0.0433047636 -0.0666324255
| 10> O 1.7265909876 0.9070697247 -0.2891491047
| 11> O 0.9847417707 -0.7483425668 0.8469845595
| 12> H -1.3498077316 0.5728728623 1.5163922152
| 13> H -2.299644288 1.3388576587 0.2383454524
| 14> H -2.9680136279 -0.0121774772 1.1528014768
| 15> H -2.2294510231 -0.7987476582 -1.0730003427
| 16> H -1.2411256677 -1.5320192431 0.1963599431
| 17> H 0.0757820359 -0.707808876 -1.7898498306
| 18> H -0.3938256716 0.9559650352 -1.3912966293
| 19> *
| 20>
| 21>                          ****END OF INPUT****

CARTESIAN COORDINATES (ANGSTROEM)
---------------------------------
  C     -2.060363    0.390153    0.712652
  C     -1.487872   -0.593737   -0.301901
  C     -0.238844   -0.042994   -0.979605
  N      0.899185    0.043305   -0.066632
  O      1.726591    0.907070   -0.289149
  O      0.984742   -0.748343    0.846985
  H     -1.349808    0.572873    1.516392
  H     -2.299644    1.338858    0.238345
  H     -2.968014   -0.012177    1.152801
  H     -2.229451   -0.798748   -1.073000
  H     -1.241126   -1.532019    0.196360
  H      0.075782   -0.707809   -1.789850
  H     -0.393826    0.955965   -1.391297

 Total Charge           Charge          ....    0
 Multiplicity           Mult            ....    1
 Number of Electrons    NEL             ....   48
 Basis Dimension        Dim             ....  164

ORBITAL ENERGIES
----------------

  NO   OCC          E(Eh)            E(eV)
   0   2.0000     -18.986360      -516.6451
   1   2.0000     -18.982993      -516.5535
   2   2.0000     -14.392041      -391.6273
   3   2.0000     -10.098022      -274.7811
   4   2.0000     -10.054779      -273.6045
   5   2.0000     -10.034086      -273.0414
   6   2.0000      -1.207127       -32.8476
   7   2.0000      -1.027855       -27.9694
   8   2.0000      -0.816564       -22.2198
   9   2.0000      -0.726468       -19.7682
  10   2.0000      -0.622596       -16.9417
  11   2.0000      -0.559077       -15.2132
  12   2.0000      -0.526871       -14.3369
  13   2.0000      -0.512312       -13.9407
  14   2.0000      -0.484327       -13.1792
  15   2.0000      -0.434565       -11.8251
  16   2.0000      -0.424005       -11.5378
  17   2.0000      -0.396701       -10.7948
  18   2.0000      -0.343873        -9.3573
  19   2.0000      -0.339234        -9.2310
  20   2.0000      -0.331383        -9.0174
  21   2.0000      -0.293206        -7.9785
  22   2.0000      -0.277368        -7.5476
  23   2.0000      -0.256736        -6.9861
  24   0.0000      -0.101750        -2.7688
  25   0.0000       0.069846         1.9006
  26   0.0000       0.091338         2.4854
  27   0.0000       0.111764         3.0412
  28   0.0000       0.118153         3.2151

MULLIKEN ATOMIC CHARGES
-----------------------
   0 C :   -0.488596
   1 C :   -0.171134
   2 C :   -0.322459
   3 N :    0.232335
   4 O :   -0.192529
   5 O :   -0.200509
   6 H :    0.167593
   7 H :    0.141227
   8 H :    0.153709
   9 H :    0.147443
  10 H :    0.162683
  11 H :    0.178101
  12 H :    0.192135
Sum of atomic charges:    0.0000000

LOEWDIN ATOMIC CHARGES
----------------------
   0 C :   -0.413420
   1 C :   -0.275620
   2 C :    0.023459
   3 N :   -0.537561
   4 O :   -0.004586
   5 O :   -0.012389
   6 H :    0.161125
   7 H :    0.151936
   8 H :    0.156477
   9 H :    0.160366
  10 H :    0.177755
  11 H :    0.208412
  12 H :    0.204046

  Mayer bond orders larger than 0.100000
B(  0-C ,  1-C ) :   0.9186 B(  0-C ,  6-H ) :   0.9813 B(  0-C ,  7-H ) :   0.9738
B(  0-C ,  8-H ) :   0.9680 B(  1-C ,  2-C ) :   0.9327 B(  1-C ,  9-H ) :   0.9460
B(  1-C , 10-H ) :   0.9544 B(  2-C ,  3-N ) :   0.8854 B(  2-C , 11-H ) :   0.9147
B(  2-C , 12-H ) :   0.9639 B(  3-N ,  4-O ) :   1.8398 B(  3-N ,  5-O ) :   1.8565
B(  4-O ,  5-O ) :   0.2770

Dispersion correction           -0.002932427
FINAL SINGLE POINT ENERGY      -323.580594384528

DIPOLE MOMENT
-------------

Method             : SCF
Type of density    : Electron Density
Multiplicity       :   1
Irrep              :   0
Energy             :  -323.5902942559872031 Eh
Relativity type    :
Basis              : AO
                                X                 Y                 Z
Electronic contribution:      8.485740838      -0.003519026       0.325925661
Nuclear contribution   :     -9.717512849      -0.169145048      -1.071217818
                        -----------------------------------------
Total Dipole Moment    :     -1.231772010      -0.172664074      -0.745292158
                        -----------------------------------------
Magnitude (a.u.)       :      1.450012265
Magnitude (Debye)      :      3.685638275

Rotational constants in cm-1:             0.226408             0.081100             0.075997
Rotational constants in MHz :          6787.540636          2431.327373          2278.342518

                             ****ORCA TERMINATED NORMALLY****
TOTAL RUN TIME: 0 days 0 hours 0 minutes 22 seconds 977 msec
