                         Program Version 6.0.0  -   RELEASE  -
|  1> ! r2scan-3c def2/J RI DEFGRID2 scfconv6 printgap
|  2> %output
|  3>     printlevel normal
|  4> end
|  5> %cpcm
|  6>     smd true
|  7>     smdsolvent "water"
|  8> end
|  9> * xyz 0 1
| 10> C -2.0603629757 0.3901528077 0.7126523183
| 11> C -1.4878721988 -0.5937371732 -0.3019012095
| 12> C -0.2388444647 -0.042993842 -0.9796049429
| 13> N 0.8991852415 0.0433047636 -0.0666324255
| 14> O 1.7265909876 0.9070697247 -0.2891491047
| 15> O 0.9847417707 -0.7483425668 0.8469845595
| 16> H -1.3498077316 0.5728728623 1.5163922152
| 17> H -2.299644288 1.3388576587 0.2383454524
| 18> H -2.9680136279 -0.0121774772 1.1528014768
| 19> H -2.2294510231 -0.7987476582 -1.0730003427
| 20> H -1.2411256677 -1.5320192431 0.1963599431
| 21> H 0.0757820359 -0.707808876 -1.7898498306
| 22> H -0.3938256716 0.9559650352 -1.3912966293
| 23> *
| 24>
| 25>                          ****END OF INPUT****

CARTESIAN COORDINATES (ANGSTROEM)
---------------------------------
  C     -2.060363    0.390153    0.712652
  C     -1.487872   -0.593737   -0.301901
  C     -0.238844   -0.042994   -0.979605
  N      0.899185    0.043305   -0.066632
  O      1.726591    0.907070   -0.289149
  O      0.984742   -0.748343    0.846985
  H     -1.349808    0.572873    1.516392
  H     -2.299644    1.338858    0.238345
  H     -2.968014   -0.012177    1.152801
  H     -2.229451   -0.798748   -1.073000
  H     -1.241126   -1.532019    0.196360
  H      0.075782   -0.707809   -1.789850
  H     -0.393826    0.955965   -1.391297

 Total Charge           Charge          ....    0
 Multiplicity           Mult            ....    1
 Number of Electrons    NEL             ....   48
 Basis Dimension        Dim             ....  164

ORBITAL ENERGIES
----------------

  NO   OCC          E(Eh)            E(eV)
   0   2.0000     -18.996773      -516.9285
   1   2.0000     -18.994805      -516.8749
   2   2.0000     -14.398511      -391.8034
   3   2.0000     -10.080261      -274.2978
   4   2.0000     -10.034961      -273.0652
   5   2.0000     -10.014276      -272.5023
   6   2.0000      -1.215966       -33.0881
   7   2.0000      -1.038095       -28.2480
   8   2.0000      -0.805002       -21.9052
   9   2.0000      -0.712269       -19.3818
  10   2.0000      -0.610116       -16.6021
  11   2.0000      -0.556286       -15.1373
  12   2.0000      -0.528095       -14.3702
  13   2.0000      -0.510113       -13.8809
  14   2.0000      -0.494732       -13.4623
  15   2.0000      -0.417629       -11.3643
  16   2.0000      -0.407911       -11.0998
  17   2.0000      -0.378222       -10.2919
  18   2.0000      -0.326867        -8.8945
  19   2.0000      -0.320543        -8.7224
  20   2.0000      -0.312240        -8.4965
  21   2.0000      -0.304744        -8.2925
  22   2.0000      -0.286856        -7.8057
  23   2.0000      -0.269131        -7.3234
  24   0.0000      -0.109202        -2.9715
  25   0.0000       0.088797         2.4163
  26   0.0000       0.107789         2.9331
  27   0.0000       0.130320         3.5462
  28   0.0000       0.133020         3.6197

MULLIKEN ATOMIC CHARGES
-----------------------
   0 C :   -0.527709
   1 C :   -0.184889
   2 C :   -0.313368
   3 N :    0.277871
   4 O :   -0.258457
   5 O :   -0.252139
   6 H :    0.165306
   7 H :    0.159064
   8 H :    0.165486
   9 H :    0.172826
  10 H :    0.161323
  11 H :    0.219929
  12 H :    0.214757
Sum of atomic charges:    0.0000000

LOEWDIN ATOMIC CHARGES
----------------------
   0 C :   -0.420541
   1 C :   -0.270031
   2 C :    0.038930
   3 N :   -0.527982
   4 O :   -0.043439
   5 O :   -0.041948
   6 H :    0.158169
   7 H :    0.157680
   8 H :    0.158727
   9 H :    0.170967
  10 H :    0.175431
  11 H :    0.227971
  12 H :    0.216067

  Mayer bond orders larger than 0.100000
B(  0-C ,  1-C ) :   0.9146 B(  0-C ,  6-H ) :   0.9810 B(  0-C ,  7-H ) :   0.9706
B(  0-C ,  8-H ) :   0.9664 B(  1-C ,  2-C ) :   0.9186 B(  1-C ,  9-H ) :   0.9415
B(  1-C , 10-H ) :   0.9604 B(  2-C ,  3-N ) :   0.9100 B(  2-C , 11-H ) :   0.8901
B(  2-C , 12-H ) :   0.9483 B(  3-N ,  4-O ) :   1.7870 B(  3-N ,  5-O ) :   1.8173
B(  4-O ,  5-O ) :   0.2659

Dispersion correction           -0.002932427
FINAL SINGLE POINT ENERGY      -323.585876512935

DIPOLE MOMENT
-------------

Method             : SCF
Type of density    : Electron Density
Multiplicity       :   1
Irrep              :   0
Energy             :  -323.5955763843941781 Eh
Relativity type    :
Basis              : AO
                                X                 Y                 Z
Electronic contribution:      8.123941122      -0.052650874      -0.014520946
Nuclear contribution   :     -9.717512849      -0.169145048      -1.071217818
                        -----------------------------------------
Total Dipole Moment    :     -1.593571727      -0.221795922      -1.085738764
                        -----------------------------------------
Magnitude (a.u.)       :      1.941003077
Magnitude (Debye)      :      4.933637738

Rotational constants in cm-1:             0.226408             0.081100             0.075997
Rotational constants in MHz :          6787.540636          2431.327373          2278.342518

                             ****ORCA TERMINATED NORMALLY****
TOTAL RUN TIME: 0 days 0 hours 0 minutes 28 seconds 441 msec
