                         Program Version 6.0.0  -   RELEASE  -
|  1> ! pbe def2-sv(p) def2/J RI DEFGRID1 loosescf d4 GCP(DFT/SV(P)) printgap
|  2> %output
|  3>     printlevel normal
|  4> end
|  5> * xyz 0 1
|  6> C -3.4776128718 0.4217783518 -0.032155741
|  7> C -2.6070140012 -0.7318000728 0.4522483871
|  8> C -1.1916754007 -0.7035471413 -0.1247298166
|  9> C -0.3752635668 0.4992741577 0.3729107507
| 10> C 1.0148375447 0.4084319428 -0.1938598751
| 11> O 1.3547498989 0.8529725618 -1.2712837403
| 12> O 1.8245741018 -0.2586526288 0.6189753324
| 13> C 3.1791620231 -0.4924325081 0.2206157596
| 14> H -4.4971933882 0.2951355859 0.3227690993
| 15> H -3.1080799548 1.3745922511 0.3365661462
| 16> H -3.494177764 0.4549403817 -1.1191224254
| 17> H -2.552030481 -0.7152055462 1.5420789796
| 18> H -3.0725610026 -1.6739613563 0.1566710948
| 19> H -1.2394296561 -0.6720332455 -1.2154049359
| 20> H -0.6720783755 -1.6195573717 0.1645076054
| 21> H -0.3204225554 0.4826078508 1.4604815943
| 22> H -0.8281282682 1.4267044555 0.0267680528
| 23> H 3.3423997849 -1.5683207574 0.222460181
| 24> H 3.8280874642 -0.0096111088 0.9489026896
| 25> H 3.3483617779 -0.0797239691 -0.7745040174
| 26> *
| 27>
| 28>                          ****END OF INPUT****

CARTESIAN COORDINATES (ANGSTROEM)
---------------------------------
  C     -3.477613    0.421778   -0.032156
  C     -2.607014   -0.731800    0.452248
  C     -1.191675   -0.703547   -0.124730
  C     -0.375264    0.499274    0.372911
  C      1.014838    0.408432   -0.193860
  O      1.354750    0.852973   -1.271284
  O      1.824574   -0.258653    0.618975
  C      3.179162   -0.492433    0.220616
  H     -4.497193    0.295136    0.322769
  H     -3.108080    1.374592    0.336566
  H     -3.494178    0.454940   -1.119122
  H     -2.552030   -0.715206    1.542079
  H     -3.072561   -1.673961    0.156671
  H     -1.239430   -0.672033   -1.215405
  H     -0.672078   -1.619557    0.164508
  H     -0.320423    0.482608    1.460482
  H     -0.828128    1.426704    0.026768
  H      3.342400   -1.568321    0.222460
  H      3.828087   -0.009611    0.948903
  H      3.348362   -0.079724   -0.774504

 Total Charge           Charge          ....    0
 Multiplicity           Mult            ....    1
 Number of Electrons    NEL             ....   64
 Basis Dimension        Dim             ....  136

ORBITAL ENERGIES
----------------

  NO   OCC          E(Eh)            E(eV)
   0   2.0000     -18.797286      -511.5002
   1   2.0000     -18.729966      -509.6683
   2   2.0000     -10.001964      -272.1673
   3   2.0000      -9.937530      -270.4140
   4   2.0000      -9.894292      -269.2374
   5   2.0000      -9.893672      -269.2205
   6   2.0000      -9.888908      -269.0909
   7   2.0000      -9.877042      -268.7680
   8   2.0000      -1.002270       -27.2732
   9   2.0000      -0.906259       -24.6606
  10   2.0000      -0.733443       -19.9580
  11   2.0000      -0.685535       -18.6544
  12   2.0000      -0.643485       -17.5101
  13   2.0000      -0.586311       -15.9543
  14   2.0000      -0.517799       -14.0900
  15   2.0000      -0.503754       -13.7078
  16   2.0000      -0.450204       -12.2507
  17   2.0000      -0.433390       -11.7931
  18   2.0000      -0.425531       -11.5793
  19   2.0000      -0.404016       -10.9938
  20   2.0000      -0.397084       -10.8052
  21   2.0000      -0.377177       -10.2635
  22   2.0000      -0.362396        -9.8613
  23   2.0000      -0.352563        -9.5937
  24   2.0000      -0.336900        -9.1675
  25   2.0000      -0.323283        -8.7970
  26   2.0000      -0.301620        -8.2075
  27   2.0000      -0.293911        -7.9977
  28   2.0000      -0.290352        -7.9009
  29   2.0000      -0.286052        -7.7839
  30   2.0000      -0.252608        -6.8738
  31   2.0000      -0.215928        -5.8757
  32   0.0000      -0.015605        -0.4246
  33   0.0000       0.037389         1.0174
  34   0.0000       0.056368         1.5339
  35   0.0000       0.068036         1.8514
  36   0.0000       0.071705         1.9512

MULLIKEN ATOMIC CHARGES
-----------------------
   0 C :   -0.297912
   1 C :   -0.142987
   2 C :   -0.214397
   3 C :   -0.128432
   4 C :    0.105715
   5 O :   -0.207152
   6 O :   -0.245675
   7 C :   -0.130268
   8 H :    0.105606
   9 H :    0.110562
  10 H :    0.103284
  11 H :    0.083595
  12 H :    0.088886
  13 H :    0.099842
  14 H :    0.093086
  15 H :    0.091922
  16 H :    0.107905
  17 H :    0.120911
  18 H :    0.121838
  19 H :    0.133672
Sum of atomic charges:   -0.0000000

LOEWDIN ATOMIC CHARGES
----------------------
   0 C :   -0.343332
   1 C :   -0.233139
   2 C :   -0.217788
   3 C :   -0.242643
   4 C :    0.036988
   5 O :   -0.174479
   6 O :   -0.076024
   7 C :   -0.209798
   8 H :    0.121270
   9 H :    0.117490
  10 H :    0.119546
  11 H :    0.115082
  12 H :    0.118491
  13 H :    0.121418
  14 H :    0.118542
  15 H :    0.129312
  16 H :    0.134824
  17 H :    0.119739
  18 H :    0.120145
  19 H :    0.124356

  Mayer bond orders larger than 0.100000
B(  0-C ,  1-C ) :   1.1527 B(  0-C ,  8-H ) :   0.9514 B(  0-C ,  9-H ) :   0.9514
B(  0-C , 10-H ) :   0.9544 B(  1-C ,  2-C ) :   1.1252 B(  1-C , 11-H ) :   0.9240
B(  1-C , 12-H ) :   0.9252 B(  2-C ,  3-C ) :   1.1254 B(  2-C , 13-H ) :   0.9212
B(  2-C , 14-H ) :   0.9222 B(  3-C ,  4-C ) :   1.0165 B(  3-C , 15-H ) :   0.9002
B(  3-C , 16-H ) :   0.8959 B(  4-C ,  5-O ) :   2.0710 B(  4-C ,  6-O ) :   1.2057
B(  6-O ,  7-C ) :   0.9365 B(  7-C , 17-H ) :   0.9606 B(  7-C , 18-H ) :   0.9614
B(  7-C , 19-H ) :   0.9274

Dispersion correction           -0.014882204
FINAL SINGLE POINT ENERGY      -385.450828127354

DIPOLE MOMENT
-------------

Method             : SCF
Type of density    : Electron Density
Multiplicity       :   1
Irrep              :   0
Energy             :  -385.5258701208948651 Eh
Relativity type    :
Basis              : AO
                                X                 Y                 Z
Electronic contribution:      8.651386066       1.703909465      -1.333163541
Nuclear contribution   :     -8.645207729      -2.153129466       1.934372163
                        -----------------------------------------
Total Dipole Moment    :      0.006178338      -0.449220001       0.601208623
                        -----------------------------------------
Magnitude (a.u.)       :      0.750525542
Magnitude (Debye)      :      1.907684322

Rotational constants in cm-1:             0.178504             0.028802             0.026687
Rotational constants in MHz :          5351.411832           863.470189           800.053071

                             ****ORCA TERMINATED NORMALLY****
TOTAL RUN TIME: 0 days 0 hours 0 minutes 9 seconds 549 msec
