                         Program Version 6.0.0  -   RELEASE  -
|  1> ! pbe def2-sv(p) def2/J RI DEFGRID1 loosescf d4 GCP(DFT/SV(P)) printgap
|  2> %output
|  3>     printlevel normal
|  4> end
|  5> * xyz 0 1
|  6> C -2.7525632332 -0.2813966553 -0.7985098558
|  7> C -1.880728712 -0.8001419805 0.3397811104
|  8> C -1.2514287093 0.3163037486 1.1745919012
|  9> C -0.3152950085 1.2266593986 0.3680495859
| 10> C 0.7853487213 0.4329655197 -0.2857695638
| 11> O 0.9400388723 0.3198333933 -1.484638306
| 12> O 1.573662419 -0.1368830142 0.6169691591
| 13> C 2.6656231992 -0.949040142 0.1777431009
| 14> H -3.2782145311 -1.1058846716 -1.2737347805
| 15> H -3.4883190075 0.4260097379 -0.4235329557
| 16> H -2.1464726657 0.2096383553 -1.5559539737
| 17> H -2.4886809804 -1.4200325504 1.0019981908
| 18> H -1.0927315391 -1.4341172912 -0.0748506741
| 19> H -0.6828504925 -0.1300731599 1.9919480864
| 20> H -2.0417677141 0.9334538752 1.603971087
| 21> H 0.1437969864 1.9489301292 1.0435831475
| 22> H -0.8616810854 1.7573382115 -0.409771487
| 23> H 2.5616886824 -1.9224951844 0.6528493292
| 24> H 3.5900257887 -0.4699047296 0.4957297238
| 25> H 2.6426844341 -1.0457586559 -0.9083566843
| 26> *
| 27>
| 28>                          ****END OF INPUT****

CARTESIAN COORDINATES (ANGSTROEM)
---------------------------------
  C     -2.752563   -0.281397   -0.798510
  C     -1.880729   -0.800142    0.339781
  C     -1.251429    0.316304    1.174592
  C     -0.315295    1.226659    0.368050
  C      0.785349    0.432966   -0.285770
  O      0.940039    0.319833   -1.484638
  O      1.573662   -0.136883    0.616969
  C      2.665623   -0.949040    0.177743
  H     -3.278215   -1.105885   -1.273735
  H     -3.488319    0.426010   -0.423533
  H     -2.146473    0.209638   -1.555954
  H     -2.488681   -1.420033    1.001998
  H     -1.092732   -1.434117   -0.074851
  H     -0.682850   -0.130073    1.991948
  H     -2.041768    0.933454    1.603971
  H      0.143797    1.948930    1.043583
  H     -0.861681    1.757338   -0.409771
  H      2.561689   -1.922495    0.652849
  H      3.590026   -0.469905    0.495730
  H      2.642684   -1.045759   -0.908357

 Total Charge           Charge          ....    0
 Multiplicity           Mult            ....    1
 Number of Electrons    NEL             ....   64
 Basis Dimension        Dim             ....  136

ORBITAL ENERGIES
----------------

  NO   OCC          E(Eh)            E(eV)
   0   2.0000     -18.800112      -511.5771
   1   2.0000     -18.731818      -509.7187
   2   2.0000     -10.005843      -272.2728
   3   2.0000      -9.940724      -270.5008
   4   2.0000      -9.896059      -269.2855
   5   2.0000      -9.892033      -269.1759
   6   2.0000      -9.885547      -268.9994
   7   2.0000      -9.872316      -268.6394
   8   2.0000      -1.005344       -27.3568
   9   2.0000      -0.908721       -24.7276
  10   2.0000      -0.733556       -19.9611
  11   2.0000      -0.682731       -18.5781
  12   2.0000      -0.642685       -17.4883
  13   2.0000      -0.585745       -15.9389
  14   2.0000      -0.522147       -14.2083
  15   2.0000      -0.501516       -13.6469
  16   2.0000      -0.448022       -12.1913
  17   2.0000      -0.437268       -11.8987
  18   2.0000      -0.419670       -11.4198
  19   2.0000      -0.409434       -11.1413
  20   2.0000      -0.398955       -10.8561
  21   2.0000      -0.370359       -10.0780
  22   2.0000      -0.361757        -9.8439
  23   2.0000      -0.348435        -9.4814
  24   2.0000      -0.340263        -9.2590
  25   2.0000      -0.326839        -8.8937
  26   2.0000      -0.299597        -8.1524
  27   2.0000      -0.292063        -7.9474
  28   2.0000      -0.286520        -7.7966
  29   2.0000      -0.285404        -7.7662
  30   2.0000      -0.255666        -6.9570
  31   2.0000      -0.216752        -5.8981
  32   0.0000      -0.019231        -0.5233
  33   0.0000       0.036340         0.9889
  34   0.0000       0.055072         1.4986
  35   0.0000       0.074531         2.0281
  36   0.0000       0.079352         2.1593

MULLIKEN ATOMIC CHARGES
-----------------------
   0 C :   -0.296137
   1 C :   -0.188550
   2 C :   -0.190866
   3 C :   -0.116841
   4 C :    0.081919
   5 O :   -0.200859
   6 O :   -0.246150
   7 C :   -0.130567
   8 H :    0.103656
   9 H :    0.095704
  10 H :    0.121147
  11 H :    0.087825
  12 H :    0.102965
  13 H :    0.097451
  14 H :    0.089933
  15 H :    0.106970
  16 H :    0.105215
  17 H :    0.121344
  18 H :    0.122296
  19 H :    0.133542
Sum of atomic charges:   -0.0000000

LOEWDIN ATOMIC CHARGES
----------------------
   0 C :   -0.344994
   1 C :   -0.237621
   2 C :   -0.221817
   3 C :   -0.244000
   4 C :    0.034752
   5 O :   -0.168673
   6 O :   -0.074813
   7 C :   -0.209386
   8 H :    0.121043
   9 H :    0.115473
  10 H :    0.122550
  11 H :    0.117267
  12 H :    0.117091
  13 H :    0.119901
  14 H :    0.117936
  15 H :    0.138340
  16 H :    0.132836
  17 H :    0.119768
  18 H :    0.120144
  19 H :    0.124202

  Mayer bond orders larger than 0.100000
B(  0-C ,  1-C ) :   1.1532 B(  0-C ,  8-H ) :   0.9510 B(  0-C ,  9-H ) :   0.9554
B(  0-C , 10-H ) :   0.9460 B(  1-C ,  2-C ) :   1.1335 B(  1-C , 11-H ) :   0.9253
B(  1-C , 12-H ) :   0.9139 B(  2-C ,  3-C ) :   1.1072 B(  2-C , 13-H ) :   0.9197
B(  2-C , 14-H ) :   0.9216 B(  3-C ,  4-C ) :   1.0264 B(  3-C , 15-H ) :   0.8952
B(  3-C , 16-H ) :   0.9061 B(  4-C ,  5-O ) :   2.0681 B(  4-C ,  6-O ) :   1.1899
B(  6-O ,  7-C ) :   0.9383 B(  7-C , 17-H ) :   0.9601 B(  7-C , 18-H ) :   0.9613
B(  7-C , 19-H ) :   0.9283

Dispersion correction           -0.015917884
FINAL SINGLE POINT ENERGY      -385.451436958073

DIPOLE MOMENT
-------------

Method             : SCF
Type of density    : Electron Density
Multiplicity       :   1
Irrep              :   0
Energy             :  -385.5264098528780323 Eh
Relativity type    :
Basis              : AO
                                X                 Y                 Z
Electronic contribution:      6.810833252       1.905397551      -1.283250375
Nuclear contribution   :     -6.663602820      -2.110879123       1.998449950
                        -----------------------------------------
Total Dipole Moment    :      0.147230432      -0.205481572       0.715199575
                        -----------------------------------------
Magnitude (a.u.)       :      0.758557782
Magnitude (Debye)      :      1.928100653

Rotational constants in cm-1:             0.115897             0.039336             0.037254
Rotational constants in MHz :          3474.512820          1179.268665          1116.855357

                             ****ORCA TERMINATED NORMALLY****
TOTAL RUN TIME: 0 days 0 hours 0 minutes 11 seconds 72 msec
