                         Program Version 6.0.1  -  RELEASE   -
|  1> ! pbe def2-sv(p) def2/J RI DEFGRID1 loosescf d4 GCP(DFT/SV(P)) printgap
|  2> %output
|  3>     printlevel normal
|  4> end
|  5> * xyz 0 1
|  6> C -3.717279603 0.2603013043 -1.8333509338
|  7> C -3.2512688956 -0.5400908004 -0.6148532083
|  8> H -3.5283095914 -1.5916583523 -0.7536705809
|  9> C -1.754743775 -0.4574398244 -0.4492002395
| 10> C -0.9323706737 -1.5362722574 -0.7451778329
| 11> C 0.4396605963 -1.4381288067 -0.6156803604
| 12> C 1.0489503526 -0.2602551894 -0.1867805898
| 13> C 0.2009477453 0.8023363205 0.1079568017
| 14> C -1.1701370734 0.725344577 -0.0160214206
| 15> F 0.7236364813 1.9789648219 0.5673065447
| 16> C 2.5115360113 -0.1666462773 -0.0557339893
| 17> C 3.2051852469 0.9434388469 -0.5302140682
| 18> C 4.581523028 1.0109767892 -0.4125883351
| 19> C 5.2825519359 -0.0250421924 0.1813305929
| 20> C 4.600156706 -1.1329491349 0.6568395212
| 21> C 3.2249641393 -1.2060978548 0.5373114337
| 22> C -3.937988799 -0.1100652802 0.66887232
| 23> O -3.5208642646 -0.377976286 1.7766730831
| 24> O -5.0557610223 0.5625238584 0.4743477856
| 25> H -3.2097877365 -0.1073283979 -2.7205942706
| 26> H -4.7896931083 0.1565645001 -1.9666916891
| 27> H -3.4822903814 1.3137735259 -1.7094815401
| 28> H -1.3679865953 -2.4640722327 -1.0819084918
| 29> H 1.0641183888 -2.2820360404 -0.8635144096
| 30> H -1.7669207702 1.5867619262 0.2408409779
| 31> H 2.6665503181 1.7513090405 -1.0027867012
| 32> H 5.1074703265 1.8762837871 -0.7869791648
| 33> H 6.3563831354 0.0314874996 0.2744239178
| 34> H 5.1414300951 -1.9417092451 1.1240928794
| 35> H 2.6929946687 -2.0626096954 0.9233995028
| 36> H -5.5000601222 0.8080408561 1.3092411829
| 37> *
| 38>
| 39>                          ****END OF INPUT****

CARTESIAN COORDINATES (ANGSTROEM)
---------------------------------
  C     -3.717280    0.260301   -1.833351
  C     -3.251269   -0.540091   -0.614853
  H     -3.528310   -1.591658   -0.753671
  C     -1.754744   -0.457440   -0.449200
  C     -0.932371   -1.536272   -0.745178
  C      0.439661   -1.438129   -0.615680
  C      1.048950   -0.260255   -0.186781
  C      0.200948    0.802336    0.107957
  C     -1.170137    0.725345   -0.016021
  F      0.723636    1.978965    0.567307
  C      2.511536   -0.166646   -0.055734
  C      3.205185    0.943439   -0.530214
  C      4.581523    1.010977   -0.412588
  C      5.282552   -0.025042    0.181331
  C      4.600157   -1.132949    0.656840
  C      3.224964   -1.206098    0.537311
  C     -3.937989   -0.110065    0.668872
  O     -3.520864   -0.377976    1.776673
  O     -5.055761    0.562524    0.474348
  H     -3.209788   -0.107328   -2.720594
  H     -4.789693    0.156565   -1.966692
  H     -3.482290    1.313774   -1.709482
  H     -1.367987   -2.464072   -1.081908
  H      1.064118   -2.282036   -0.863514
  H     -1.766921    1.586762    0.240841
  H      2.666550    1.751309   -1.002787
  H      5.107470    1.876284   -0.786979
  H      6.356383    0.031487    0.274424
  H      5.141430   -1.941709    1.124093
  H      2.692995   -2.062610    0.923400
  H     -5.500060    0.808041    1.309241

 Total Charge           Charge          ....    0
 Multiplicity           Mult            ....    1
 Number of Electrons    NEL             ....  128
 Basis Dimension        Dim             ....  278

ORBITAL ENERGIES
----------------

  NO   OCC          E(Eh)            E(eV)
   0   2.0000     -24.267214      -660.3445
   1   2.0000     -18.809477      -511.8319
   2   2.0000     -18.739739      -509.9342
   3   2.0000     -10.018040      -272.6047
   4   2.0000      -9.973474      -271.3920
   5   2.0000      -9.922497      -270.0049
   6   2.0000      -9.914553      -269.7887
   7   2.0000      -9.909406      -269.6487
   8   2.0000      -9.906598      -269.5722
   9   2.0000      -9.900941      -269.4183
  10   2.0000      -9.898530      -269.3527
  11   2.0000      -9.896221      -269.2899
  12   2.0000      -9.893340      -269.2115
  13   2.0000      -9.892886      -269.1991
  14   2.0000      -9.892273      -269.1824
  15   2.0000      -9.892007      -269.1752
  16   2.0000      -9.891658      -269.1657
  17   2.0000      -9.888924      -269.0913
  18   2.0000      -1.091671       -29.7059
  19   2.0000      -1.017967       -27.7003
  20   2.0000      -0.915472       -24.9113
  21   2.0000      -0.797660       -21.7054
  22   2.0000      -0.777275       -21.1507
  23   2.0000      -0.739788       -20.1307
  24   2.0000      -0.696370       -18.9492
  25   2.0000      -0.676474       -18.4078
  26   2.0000      -0.670253       -18.2385
  27   2.0000      -0.648107       -17.6359
  28   2.0000      -0.608462       -16.5571
  29   2.0000      -0.584310       -15.8999
  30   2.0000      -0.562313       -15.3013
  31   2.0000      -0.544059       -14.8046
  32   2.0000      -0.536495       -14.5988
  33   2.0000      -0.524959       -14.2849
  34   2.0000      -0.486965       -13.2510
  35   2.0000      -0.468241       -12.7415
  36   2.0000      -0.457284       -12.4433
  37   2.0000      -0.436929       -11.8894
  38   2.0000      -0.427585       -11.6352
  39   2.0000      -0.418286       -11.3821
  40   2.0000      -0.414606       -11.2820
  41   2.0000      -0.407163       -11.0795
  42   2.0000      -0.398984       -10.8569
  43   2.0000      -0.393414       -10.7053
  44   2.0000      -0.390624       -10.6294
  45   2.0000      -0.380850       -10.3635
  46   2.0000      -0.374107       -10.1800
  47   2.0000      -0.368476       -10.0267
  48   2.0000      -0.356262        -9.6944
  49   2.0000      -0.345657        -9.4058
  50   2.0000      -0.339939        -9.2502
  51   2.0000      -0.335320        -9.1245
  52   2.0000      -0.327889        -8.9223
  53   2.0000      -0.317617        -8.6428
  54   2.0000      -0.316939        -8.6244
  55   2.0000      -0.309902        -8.4329
  56   2.0000      -0.300111        -8.1664
  57   2.0000      -0.291318        -7.9272
  58   2.0000      -0.277583        -7.5534
  59   2.0000      -0.248303        -6.7567
  60   2.0000      -0.230061        -6.2603
  61   2.0000      -0.227209        -6.1827
  62   2.0000      -0.222956        -6.0669
  63   2.0000      -0.206396        -5.6163
  64   0.0000      -0.060414        -1.6439
  65   0.0000      -0.036953        -1.0055
  66   0.0000      -0.034649        -0.9429
  67   0.0000      -0.030808        -0.8383
  68   0.0000      -0.012917        -0.3515

MULLIKEN ATOMIC CHARGES
-----------------------
   0 C :   -0.205856
   1 C :   -0.172255
   2 H :    0.102266
   3 C :    0.160118
   4 C :   -0.109893
   5 C :   -0.118684
   6 C :    0.031389
   7 C :    0.264655
   8 C :   -0.228203
   9 F :   -0.172878
  10 C :    0.112449
  11 C :   -0.096985
  12 C :   -0.052396
  13 C :   -0.045562
  14 C :   -0.049345
  15 C :   -0.111140
  16 C :    0.103191
  17 O :   -0.175783
  18 O :   -0.275888
  19 H :    0.106308
  20 H :    0.114801
  21 H :    0.107268
  22 H :    0.037095
  23 H :    0.049244
  24 H :    0.048001
  25 H :    0.049328
  26 H :    0.053465
  27 H :    0.054134
  28 H :    0.052863
  29 H :    0.049886
  30 H :    0.318408
Sum of atomic charges:   -0.0000000

LOEWDIN ATOMIC CHARGES
----------------------
   0 C :   -0.322001
   1 C :   -0.156220
   2 H :    0.147363
   3 C :   -0.014399
   4 C :   -0.129414
   5 C :   -0.103030
   6 C :   -0.054797
   7 C :    0.083134
   8 C :   -0.135924
   9 F :   -0.056005
  10 C :   -0.027688
  11 C :   -0.108650
  12 C :   -0.120485
  13 C :   -0.122805
  14 C :   -0.121071
  15 C :   -0.113551
  16 C :    0.027428
  17 O :   -0.165098
  18 O :   -0.192618
  19 H :    0.125133
  20 H :    0.124987
  21 H :    0.123360
  22 H :    0.123857
  23 H :    0.129097
  24 H :    0.134096
  25 H :    0.125308
  26 H :    0.124593
  27 H :    0.123784
  28 H :    0.124336
  29 H :    0.125818
  30 H :    0.301461

  Mayer bond orders larger than 0.100000
B(  0-C ,  1-C ) :   1.1131 B(  0-C , 19-H ) :   0.9426 B(  0-C , 20-H ) :   0.9364
B(  0-C , 21-H ) :   0.9499 B(  1-C ,  2-H ) :   0.8528 B(  1-C ,  3-C ) :   1.0050
B(  1-C , 16-C ) :   0.9220 B(  3-C ,  4-C ) :   1.3836 B(  3-C ,  8-C ) :   1.3021
B(  4-C ,  5-C ) :   1.3450 B(  4-C , 22-H ) :   0.9640 B(  5-C ,  6-C ) :   1.3709
B(  5-C , 23-H ) :   0.9571 B(  6-C ,  7-C ) :   1.3326 B(  6-C , 10-C ) :   0.9730
B(  7-C ,  8-C ) :   1.3501 B(  7-C ,  9-F ) :   1.1034 B(  8-C , 24-H ) :   0.9574
B( 10-C , 11-C ) :   1.3783 B( 10-C , 15-C ) :   1.3798 B( 11-C , 12-C ) :   1.3755
B( 11-C , 25-H ) :   0.9605 B( 12-C , 13-C ) :   1.3741 B( 12-C , 26-H ) :   0.9631
B( 13-C , 14-C ) :   1.3764 B( 13-C , 27-H ) :   0.9655 B( 14-C , 15-C ) :   1.3714
B( 14-C , 28-H ) :   0.9637 B( 15-C , 29-H ) :   0.9584 B( 16-C , 17-O ) :   2.1346
B( 16-C , 18-O ) :   1.3026 B( 18-O , 30-H ) :   0.8167

Dispersion correction           -0.040023371
FINAL SINGLE POINT ENERGY      -828.015334166703

DIPOLE MOMENT
-------------

Method             : SCF
Type of density    : Electron Density
Multiplicity       :   1
Irrep              :   0
Energy             :  -828.1051513575525860 Eh
Relativity type    :
Basis              : AO
                                X                 Y                 Z
Electronic contribution:      0.724372440       4.433959176       6.475160632
Nuclear contribution   :     -1.375470143      -4.575141784      -7.072273811
                        -----------------------------------------
Total Dipole Moment    :     -0.651097703      -0.141182608      -0.597113179
                        -----------------------------------------
Magnitude (a.u.)       :      0.894653507
Magnitude (Debye)      :      2.274028494

Rotational constants in cm-1:             0.041293             0.006231             0.006036
Rotational constants in MHz :          1237.944151           186.809926           180.955049

                             ****ORCA TERMINATED NORMALLY****
TOTAL RUN TIME: 0 days 0 hours 0 minutes 16 seconds 306 msec
