                         Program Version 6.0.0  -   RELEASE  -
|  1> ! r2scan-3c def2/J RI DEFGRID2 scfconv6 printgap
|  2> %output
|  3>     printlevel normal
|  4> end
|  5> * xyz 0 1
|  6> C -3.4052968123 -0.9365350786 0.3993622128
|  7> C -1.9411418165 -0.5909165724 0.6429205126
|  8> C -1.3577150865 0.1854860428 -0.53674753
|  9> C 0.0823400505 0.5899477172 -0.3569094465
| 10> O 0.5860643331 1.5516022941 -0.9038489358
| 11> O 0.7460034663 -0.2188312805 0.4561857702
| 12> C 2.140221964 0.039220946 0.6900577429
| 13> C 3.0069387259 -0.6056487807 -0.3807043382
| 14> H -3.8096522334 -1.4820106557 1.2475184414
| 15> H -3.9928957382 -0.0323638281 0.2601237967
| 16> H -3.5095385164 -1.5541481882 -0.489108158
| 17> H -1.3653793227 -1.5043221843 0.7936675734
| 18> H -1.8521601011 0.0113507327 1.5487283081
| 19> H -1.9312796435 1.0928461 -0.7339692278
| 20> H -1.4007359081 -0.4290608539 -1.4402033783
| 21> H 2.2964096792 1.1221007399 0.7103042051
| 22> H 2.3364400002 -0.3914902451 1.6723541898
| 23> H 4.053000563 -0.4526152394 -0.1363013869
| 24> H 2.8028763911 -1.6714958596 -0.4362303791
| 25> H 2.8009050404 -0.1534625534 -1.3483529419
| 26> *
| 27>
| 28>                          ****END OF INPUT****

CARTESIAN COORDINATES (ANGSTROEM)
---------------------------------
  C     -3.405297   -0.936535    0.399362
  C     -1.941142   -0.590917    0.642921
  C     -1.357715    0.185486   -0.536748
  C      0.082340    0.589948   -0.356909
  O      0.586064    1.551602   -0.903849
  O      0.746003   -0.218831    0.456186
  C      2.140222    0.039221    0.690058
  C      3.006939   -0.605649   -0.380704
  H     -3.809652   -1.482011    1.247518
  H     -3.992896   -0.032364    0.260124
  H     -3.509539   -1.554148   -0.489108
  H     -1.365379   -1.504322    0.793668
  H     -1.852160    0.011351    1.548728
  H     -1.931280    1.092846   -0.733969
  H     -1.400736   -0.429061   -1.440203
  H      2.296410    1.122101    0.710304
  H      2.336440   -0.391490    1.672354
  H      4.053001   -0.452615   -0.136301
  H      2.802876   -1.671496   -0.436230
  H      2.800905   -0.153463   -1.348353

 Total Charge           Charge          ....    0
 Multiplicity           Mult            ....    1
 Number of Electrons    NEL             ....   64
 Basis Dimension        Dim             ....  222

ORBITAL ENERGIES
----------------

  NO   OCC          E(Eh)            E(eV)
   0   2.0000     -18.996967      -516.9337
   1   2.0000     -18.924751      -514.9687
   2   2.0000     -10.151282      -276.2304
   3   2.0000     -10.091465      -274.6027
   4   2.0000     -10.041879      -273.2534
   5   2.0000     -10.032904      -273.0092
   6   2.0000     -10.028669      -272.8940
   7   2.0000     -10.021639      -272.7026
   8   2.0000      -1.071668       -29.1616
   9   2.0000      -0.972785       -26.4708
  10   2.0000      -0.774868       -21.0852
  11   2.0000      -0.738093       -20.0845
  12   2.0000      -0.680379       -18.5141
  13   2.0000      -0.621870       -16.9219
  14   2.0000      -0.569676       -15.5017
  15   2.0000      -0.523866       -14.2551
  16   2.0000      -0.474059       -12.8998
  17   2.0000      -0.455413       -12.3924
  18   2.0000      -0.442184       -12.0324
  19   2.0000      -0.417865       -11.3707
  20   2.0000      -0.411090       -11.1863
  21   2.0000      -0.386746       -10.5239
  22   2.0000      -0.375280       -10.2119
  23   2.0000      -0.368543       -10.0286
  24   2.0000      -0.347077        -9.4445
  25   2.0000      -0.335668        -9.1340
  26   2.0000      -0.332115        -9.0373
  27   2.0000      -0.319194        -8.6857
  28   2.0000      -0.308189        -8.3862
  29   2.0000      -0.301020        -8.1912
  30   2.0000      -0.270158        -7.3514
  31   2.0000      -0.230934        -6.2840
  32   0.0000      -0.012432        -0.3383
  33   0.0000       0.074420         2.0251
  34   0.0000       0.091005         2.4764
  35   0.0000       0.106364         2.8943
  36   0.0000       0.120078         3.2675

MULLIKEN ATOMIC CHARGES
-----------------------
   0 C :   -0.466942
   1 C :   -0.231877
   2 C :   -0.345868
   3 C :    0.371291
   4 O :   -0.424531
   5 O :   -0.155398
   6 C :   -0.139282
   7 C :   -0.465285
   8 H :    0.148867
   9 H :    0.143192
  10 H :    0.141696
  11 H :    0.153655
  12 H :    0.143337
  13 H :    0.168989
  14 H :    0.170487
  15 H :    0.168266
  16 H :    0.147930
  17 H :    0.146893
  18 H :    0.150739
  19 H :    0.173843
Sum of atomic charges:    0.0000000

LOEWDIN ATOMIC CHARGES
----------------------
   0 C :   -0.422020
   1 C :   -0.296269
   2 C :   -0.228193
   3 C :    0.362088
   4 O :   -0.437522
   5 O :   -0.603544
   6 C :    0.029385
   7 C :   -0.390425
   8 H :    0.152187
   9 H :    0.150691
  10 H :    0.150331
  11 H :    0.164700
  12 H :    0.157134
  13 H :    0.180912
  14 H :    0.182558
  15 H :    0.188774
  16 H :    0.177456
  17 H :    0.159275
  18 H :    0.156654
  19 H :    0.165829

  Mayer bond orders larger than 0.100000
B(  0-C ,  1-C ) :   0.8871 B(  0-C ,  8-H ) :   0.9741 B(  0-C ,  9-H ) :   0.9807
B(  0-C , 10-H ) :   0.9851 B(  1-C ,  2-C ) :   0.9196 B(  1-C , 11-H ) :   0.9624
B(  1-C , 12-H ) :   0.9671 B(  2-C ,  3-C ) :   1.0143 B(  2-C , 13-H ) :   0.9823
B(  2-C , 14-H ) :   0.9326 B(  3-C ,  4-O ) :   1.8556 B(  3-C ,  5-O ) :   1.0592
B(  5-O ,  6-C ) :   0.8155 B(  6-C ,  7-C ) :   0.9343 B(  6-C , 15-H ) :   0.9672
B(  6-C , 16-H ) :   0.9630 B(  7-C , 17-H ) :   0.9648 B(  7-C , 18-H ) :   0.9742
B(  7-C , 19-H ) :   0.9716

Dispersion correction           -0.004989379
FINAL SINGLE POINT ENERGY      -386.235000614803

DIPOLE MOMENT
-------------

Method             : SCF
Type of density    : Electron Density
Multiplicity       :   1
Irrep              :   0
Energy             :  -386.2417533923825204 Eh
Relativity type    :
Basis              : AO
                                X                 Y                 Z
Electronic contribution:      3.340284113       4.355402764      -1.086493686
Nuclear contribution   :     -3.331388509      -5.088247438       1.539958902
                        -----------------------------------------
Total Dipole Moment    :      0.008895604      -0.732844674       0.453465216
                        -----------------------------------------
Magnitude (a.u.)       :      0.861841720
Magnitude (Debye)      :      2.190627561

Rotational constants in cm-1:             0.144134             0.032778             0.028962
Rotational constants in MHz :          4321.017717           982.653049           868.271218

                             ****ORCA TERMINATED NORMALLY****
TOTAL RUN TIME: 0 days 0 hours 0 minutes 31 seconds 34 msec
