                         Program Version 6.0.0  -   RELEASE  -
|  1> ! r2scan-3c def2/J RI DEFGRID2 scfconv6 printgap
|  2> %output
|  3>     printlevel normal
|  4> end
|  5> %cpcm
|  6>     smd true
|  7>     smdsolvent "water"
|  8> end
|  9> * xyz 0 1
| 10> C -3.4052968123 -0.9365350786 0.3993622128
| 11> C -1.9411418165 -0.5909165724 0.6429205126
| 12> C -1.3577150865 0.1854860428 -0.53674753
| 13> C 0.0823400505 0.5899477172 -0.3569094465
| 14> O 0.5860643331 1.5516022941 -0.9038489358
| 15> O 0.7460034663 -0.2188312805 0.4561857702
| 16> C 2.140221964 0.039220946 0.6900577429
| 17> C 3.0069387259 -0.6056487807 -0.3807043382
| 18> H -3.8096522334 -1.4820106557 1.2475184414
| 19> H -3.9928957382 -0.0323638281 0.2601237967
| 20> H -3.5095385164 -1.5541481882 -0.489108158
| 21> H -1.3653793227 -1.5043221843 0.7936675734
| 22> H -1.8521601011 0.0113507327 1.5487283081
| 23> H -1.9312796435 1.0928461 -0.7339692278
| 24> H -1.4007359081 -0.4290608539 -1.4402033783
| 25> H 2.2964096792 1.1221007399 0.7103042051
| 26> H 2.3364400002 -0.3914902451 1.6723541898
| 27> H 4.053000563 -0.4526152394 -0.1363013869
| 28> H 2.8028763911 -1.6714958596 -0.4362303791
| 29> H 2.8009050404 -0.1534625534 -1.3483529419
| 30> *
| 31>
| 32>                          ****END OF INPUT****

CARTESIAN COORDINATES (ANGSTROEM)
---------------------------------
  C     -3.405297   -0.936535    0.399362
  C     -1.941142   -0.590917    0.642921
  C     -1.357715    0.185486   -0.536748
  C      0.082340    0.589948   -0.356909
  O      0.586064    1.551602   -0.903849
  O      0.746003   -0.218831    0.456186
  C      2.140222    0.039221    0.690058
  C      3.006939   -0.605649   -0.380704
  H     -3.809652   -1.482011    1.247518
  H     -3.992896   -0.032364    0.260124
  H     -3.509539   -1.554148   -0.489108
  H     -1.365379   -1.504322    0.793668
  H     -1.852160    0.011351    1.548728
  H     -1.931280    1.092846   -0.733969
  H     -1.400736   -0.429061   -1.440203
  H      2.296410    1.122101    0.710304
  H      2.336440   -0.391490    1.672354
  H      4.053001   -0.452615   -0.136301
  H      2.802876   -1.671496   -0.436230
  H      2.800905   -0.153463   -1.348353

 Total Charge           Charge          ....    0
 Multiplicity           Mult            ....    1
 Number of Electrons    NEL             ....   64
 Basis Dimension        Dim             ....  222

ORBITAL ENERGIES
----------------

  NO   OCC          E(Eh)            E(eV)
   0   2.0000     -19.002381      -517.0811
   1   2.0000     -18.941047      -515.4121
   2   2.0000     -10.162091      -276.5246
   3   2.0000     -10.083461      -274.3849
   4   2.0000     -10.035558      -273.0814
   5   2.0000     -10.024466      -272.7796
   6   2.0000     -10.018205      -272.6092
   7   2.0000     -10.010393      -272.3966
   8   2.0000      -1.078769       -29.3548
   9   2.0000      -0.986963       -26.8566
  10   2.0000      -0.768962       -20.9245
  11   2.0000      -0.730487       -19.8776
  12   2.0000      -0.673596       -18.3295
  13   2.0000      -0.616375       -16.7724
  14   2.0000      -0.562346       -15.3022
  15   2.0000      -0.521005       -14.1773
  16   2.0000      -0.472355       -12.8534
  17   2.0000      -0.453301       -12.3349
  18   2.0000      -0.452072       -12.3015
  19   2.0000      -0.416603       -11.3363
  20   2.0000      -0.408014       -11.1026
  21   2.0000      -0.379004       -10.3132
  22   2.0000      -0.370509       -10.0821
  23   2.0000      -0.360329        -9.8050
  24   2.0000      -0.339732        -9.2446
  25   2.0000      -0.334546        -9.1035
  26   2.0000      -0.328605        -8.9418
  27   2.0000      -0.311775        -8.4838
  28   2.0000      -0.301824        -8.2131
  29   2.0000      -0.294512        -8.0141
  30   2.0000      -0.277981        -7.5642
  31   2.0000      -0.246708        -6.7133
  32   0.0000      -0.020504        -0.5579
  33   0.0000       0.078906         2.1472
  34   0.0000       0.097408         2.6506
  35   0.0000       0.116262         3.1636
  36   0.0000       0.129711         3.5296

MULLIKEN ATOMIC CHARGES
-----------------------
   0 C :   -0.515085
   1 C :   -0.236233
   2 C :   -0.359642
   3 C :    0.415092
   4 O :   -0.512919
   5 O :   -0.173649
   6 C :   -0.144900
   7 C :   -0.490180
   8 H :    0.159413
   9 H :    0.156339
  10 H :    0.156490
  11 H :    0.156388
  12 H :    0.157468
  13 H :    0.180382
  14 H :    0.201159
  15 H :    0.171693
  16 H :    0.173947
  17 H :    0.170224
  18 H :    0.165449
  19 H :    0.168563
Sum of atomic charges:    0.0000000

LOEWDIN ATOMIC CHARGES
----------------------
   0 C :   -0.427634
   1 C :   -0.294963
   2 C :   -0.226448
   3 C :    0.372745
   4 O :   -0.500453
   5 O :   -0.604434
   6 C :    0.034025
   7 C :   -0.393219
   8 H :    0.154943
   9 H :    0.154227
  10 H :    0.154373
  11 H :    0.164867
  12 H :    0.160359
  13 H :    0.185796
  14 H :    0.194945
  15 H :    0.189794
  16 H :    0.188858
  17 H :    0.167829
  18 H :    0.161908
  19 H :    0.162481

  Mayer bond orders larger than 0.100000
B(  0-C ,  1-C ) :   0.8815 B(  0-C ,  8-H ) :   0.9708 B(  0-C ,  9-H ) :   0.9786
B(  0-C , 10-H ) :   0.9828 B(  1-C ,  2-C ) :   0.9083 B(  1-C , 11-H ) :   0.9609
B(  1-C , 12-H ) :   0.9683 B(  2-C ,  3-C ) :   1.0171 B(  2-C , 13-H ) :   0.9799
B(  2-C , 14-H ) :   0.9152 B(  3-C ,  4-O ) :   1.7851 B(  3-C ,  5-O ) :   1.0883
B(  5-O ,  6-C ) :   0.7970 B(  6-C ,  7-C ) :   0.9334 B(  6-C , 15-H ) :   0.9635
B(  6-C , 16-H ) :   0.9535 B(  7-C , 17-H ) :   0.9598 B(  7-C , 18-H ) :   0.9701
B(  7-C , 19-H ) :   0.9698

Dispersion correction           -0.004989379
FINAL SINGLE POINT ENERGY      -386.240277202900

DIPOLE MOMENT
-------------

Method             : SCF
Type of density    : Electron Density
Multiplicity       :   1
Irrep              :   0
Energy             :  -386.2470299804797378 Eh
Relativity type    :
Basis              : AO
                                X                 Y                 Z
Electronic contribution:      3.298368310       4.062582705      -0.909558309
Nuclear contribution   :     -3.331388509      -5.088247438       1.539958902
                        -----------------------------------------
Total Dipole Moment    :     -0.033020199      -1.025664734       0.630400593
                        -----------------------------------------
Magnitude (a.u.)       :      1.204360157
Magnitude (Debye)      :      3.061240238

Rotational constants in cm-1:             0.144134             0.032778             0.028962
Rotational constants in MHz :          4321.017717           982.653049           868.271218

                             ****ORCA TERMINATED NORMALLY****
TOTAL RUN TIME: 0 days 0 hours 0 minutes 37 seconds 752 msec
