                         Program Version 6.0.0  -   RELEASE  -
|  1> ! pbe def2-sv(p) def2/J RI DEFGRID1 loosescf d4 GCP(DFT/SV(P)) printgap
|  2> %output
|  3>     printlevel normal
|  4> end
|  5> * xyz 0 1
|  6> C -2.3359234728 -1.2182736012 0.7436643929
|  7> C -2.5287149519 0.0496068587 -0.0794526669
|  8> C -1.323509234 0.3229033945 -0.9859790224
|  9> C -0.1016230291 0.6437427535 -0.1646644971
| 10> O -0.0303627346 1.5325524494 0.6599373449
| 11> O 0.9074573349 -0.169010255 -0.4424640114
| 12> C 2.1425353907 0.0221108022 0.2680811475
| 13> C 3.0783149653 -1.1143489737 -0.0951590358
| 14> H -3.2127245332 -1.4087701712 1.356712204
| 15> H -2.1737778804 -2.0748144347 0.0938125569
| 16> H -1.4745019855 -1.1172456992 1.4013695266
| 17> H -2.6643266154 0.9037006393 0.5867827212
| 18> H -3.4197752829 -0.047664704 -0.7000623194
| 19> H -1.5331123594 1.1895287849 -1.6149576995
| 20> H -1.103761964 -0.5389340674 -1.6146637549
| 21> H 2.5558966367 0.9952465293 -0.0165719056
| 22> H 1.9248808711 0.0460211414 1.3411008112
| 23> H 4.0209978453 -0.9842592543 0.4259176139
| 24> H 2.6382557905 -2.0651522665 0.1906222658
| 25> H 3.2571243528 -1.1190226509 -1.1661827318
| 26> *
| 27>
| 28>                          ****END OF INPUT****

CARTESIAN COORDINATES (ANGSTROEM)
---------------------------------
  C     -2.335923   -1.218274    0.743664
  C     -2.528715    0.049607   -0.079453
  C     -1.323509    0.322903   -0.985979
  C     -0.101623    0.643743   -0.164664
  O     -0.030363    1.532552    0.659937
  O      0.907457   -0.169010   -0.442464
  C      2.142535    0.022111    0.268081
  C      3.078315   -1.114349   -0.095159
  H     -3.212725   -1.408770    1.356712
  H     -2.173778   -2.074814    0.093813
  H     -1.474502   -1.117246    1.401370
  H     -2.664327    0.903701    0.586783
  H     -3.419775   -0.047665   -0.700062
  H     -1.533112    1.189529   -1.614958
  H     -1.103762   -0.538934   -1.614664
  H      2.555897    0.995247   -0.016572
  H      1.924881    0.046021    1.341101
  H      4.020998   -0.984259    0.425918
  H      2.638256   -2.065152    0.190622
  H      3.257124   -1.119023   -1.166183

 Total Charge           Charge          ....    0
 Multiplicity           Mult            ....    1
 Number of Electrons    NEL             ....   64
 Basis Dimension        Dim             ....  136

ORBITAL ENERGIES
----------------

  NO   OCC          E(Eh)            E(eV)
   0   2.0000     -18.797969      -511.5187
   1   2.0000     -18.729564      -509.6573
   2   2.0000     -10.003128      -272.1989
   3   2.0000      -9.946891      -270.6687
   4   2.0000      -9.895573      -269.2722
   5   2.0000      -9.891105      -269.1507
   6   2.0000      -9.889645      -269.1109
   7   2.0000      -9.877299      -268.7750
   8   2.0000      -1.004387       -27.3308
   9   2.0000      -0.906523       -24.6677
  10   2.0000      -0.727794       -19.8043
  11   2.0000      -0.700070       -19.0499
  12   2.0000      -0.636448       -17.3186
  13   2.0000      -0.583724       -15.8839
  14   2.0000      -0.531242       -14.4558
  15   2.0000      -0.503201       -13.6928
  16   2.0000      -0.449739       -12.2380
  17   2.0000      -0.443750       -12.0750
  18   2.0000      -0.414638       -11.2829
  19   2.0000      -0.403058       -10.9678
  20   2.0000      -0.387701       -10.5499
  21   2.0000      -0.363830        -9.9003
  22   2.0000      -0.362951        -9.8764
  23   2.0000      -0.352247        -9.5851
  24   2.0000      -0.346528        -9.4295
  25   2.0000      -0.322139        -8.7659
  26   2.0000      -0.309467        -8.4210
  27   2.0000      -0.297618        -8.0986
  28   2.0000      -0.295979        -8.0540
  29   2.0000      -0.291254        -7.9254
  30   2.0000      -0.256008        -6.9663
  31   2.0000      -0.215451        -5.8627
  32   0.0000      -0.019363        -0.5269
  33   0.0000       0.035737         0.9725
  34   0.0000       0.052776         1.4361
  35   0.0000       0.075557         2.0560
  36   0.0000       0.077444         2.1074

MULLIKEN ATOMIC CHARGES
-----------------------
   0 C :   -0.288775
   1 C :   -0.203150
   2 C :   -0.116864
   3 C :    0.087788
   4 O :   -0.216277
   5 O :   -0.236464
   6 C :   -0.031466
   7 C :   -0.271655
   8 H :    0.107928
   9 H :    0.099038
  10 H :    0.115774
  11 H :    0.108714
  12 H :    0.092071
  13 H :    0.111964
  14 H :    0.091585
  15 H :    0.104145
  16 H :    0.106210
  17 H :    0.110750
  18 H :    0.114348
  19 H :    0.114335
Sum of atomic charges:   -0.0000000

LOEWDIN ATOMIC CHARGES
----------------------
   0 C :   -0.342531
   1 C :   -0.226856
   2 C :   -0.246655
   3 C :    0.033924
   4 O :   -0.173799
   5 O :   -0.068377
   6 C :   -0.109340
   7 C :   -0.350607
   8 H :    0.121687
   9 H :    0.117419
  10 H :    0.120109
  11 H :    0.124764
  12 H :    0.117960
  13 H :    0.141556
  14 H :    0.125907
  15 H :    0.116019
  16 H :    0.116087
  17 H :    0.130073
  18 H :    0.126285
  19 H :    0.126376

  Mayer bond orders larger than 0.100000
B(  0-C ,  1-C ) :   1.1544 B(  0-C ,  8-H ) :   0.9520 B(  0-C ,  9-H ) :   0.9538
B(  0-C , 10-H ) :   0.9489 B(  1-C ,  2-C ) :   1.1120 B(  1-C , 11-H ) :   0.9201
B(  1-C , 12-H ) :   0.9285 B(  2-C ,  3-C ) :   1.0250 B(  2-C , 13-H ) :   0.8933
B(  2-C , 14-H ) :   0.9105 B(  3-C ,  4-O ) :   2.0404 B(  3-C ,  5-O ) :   1.2168
B(  5-O ,  6-C ) :   0.9120 B(  6-C ,  7-C ) :   1.1502 B(  6-C , 15-H ) :   0.9339
B(  6-C , 16-H ) :   0.9285 B(  7-C , 17-H ) :   0.9447 B(  7-C , 18-H ) :   0.9508
B(  7-C , 19-H ) :   0.9493

Dispersion correction           -0.014911736
FINAL SINGLE POINT ENERGY      -385.458353156309

DIPOLE MOMENT
-------------

Method             : SCF
Type of density    : Electron Density
Multiplicity       :   1
Irrep              :   0
Energy             :  -385.5332758332827439 Eh
Relativity type    :
Basis              : AO
                                X                 Y                 Z
Electronic contribution:      1.357981799       5.227900998      -0.611122424
Nuclear contribution   :     -1.098557770      -5.816459715       0.269550826
                        -----------------------------------------
Total Dipole Moment    :      0.259424029      -0.588558718      -0.341571598
                        -----------------------------------------
Magnitude (a.u.)       :      0.728267360
Magnitude (Debye)      :      1.851108518

Rotational constants in cm-1:             0.123476             0.035549             0.032126
Rotational constants in MHz :          3701.710387          1065.745708           963.105430

                             ****ORCA TERMINATED NORMALLY****
TOTAL RUN TIME: 0 days 0 hours 0 minutes 10 seconds 664 msec
