                         Program Version 6.0.0  -   RELEASE  -
|  1> ! pbe def2-sv(p) def2/J RI DEFGRID1 loosescf d4 GCP(DFT/SV(P)) printgap
|  2> %output
|  3>     printlevel normal
|  4> end
|  5> * xyz 0 1
|  6> C 2.7154853797 -1.0326068545 -0.3352341399
|  7> C 2.3669841082 0.1980968251 0.4962811648
|  8> C 1.4179989576 1.1683100796 -0.2209951652
|  9> C -0.056834424 1.01262243 0.1638387336
| 10> C -0.6336979066 -0.3285006598 -0.2515105436
| 11> Cl -2.4048326394 -0.3765551173 0.0731464609
| 12> H 3.3861828968 -1.6835914832 0.2208695665
| 13> H 3.2154369644 -0.7362577706 -1.2546221713
| 14> H 1.8277230886 -1.600317254 -0.5980984826
| 15> H 1.9233191087 -0.1122564645 1.4437577859
| 16> H 3.2967818689 0.7196425667 0.731297298
| 17> H 1.5242298376 1.0482224579 -1.3001592247
| 18> H 1.7027813797 2.1925083895 0.0238464048
| 19> H -0.6294350394 1.805697706 -0.3213246221
| 20> H -0.1676830821 1.1344576078 1.2428974376
| 21> H -0.5171808414 -0.5016876407 -1.3200306112
| 22> H -0.2080646166 -1.1514765639 0.3177971442
| 23> *
| 24>
| 25>                          ****END OF INPUT****

CARTESIAN COORDINATES (ANGSTROEM)
---------------------------------
  C      2.715485   -1.032607   -0.335234
  C      2.366984    0.198097    0.496281
  C      1.417999    1.168310   -0.220995
  C     -0.056834    1.012622    0.163839
  C     -0.633698   -0.328501   -0.251511
  Cl    -2.404833   -0.376555    0.073146
  H      3.386183   -1.683591    0.220870
  H      3.215437   -0.736258   -1.254622
  H      1.827723   -1.600317   -0.598098
  H      1.923319   -0.112256    1.443758
  H      3.296782    0.719643    0.731297
  H      1.524230    1.048222   -1.300159
  H      1.702781    2.192508    0.023846
  H     -0.629435    1.805698   -0.321325
  H     -0.167683    1.134458    1.242897
  H     -0.517181   -0.501688   -1.320031
  H     -0.208065   -1.151477    0.317797

 Total Charge           Charge          ....    0
 Multiplicity           Mult            ....    1
 Number of Electrons    NEL             ....   58
 Basis Dimension        Dim             ....  110

ORBITAL ENERGIES
----------------

  NO   OCC          E(Eh)            E(eV)
   0   2.0000    -100.613175     -2737.8237
   1   2.0000      -9.938034      -270.4277
   2   2.0000      -9.894528      -269.2438
   3   2.0000      -9.891409      -269.1589
   4   2.0000      -9.889643      -269.1109
   5   2.0000      -9.879328      -268.8302
   6   2.0000      -9.148917      -248.9547
   7   2.0000      -6.980504      -189.9492
   8   2.0000      -6.968610      -189.6255
   9   2.0000      -6.968498      -189.6225
  10   2.0000      -0.773447       -21.0465
  11   2.0000      -0.724008       -19.7013
  12   2.0000      -0.666326       -18.1317
  13   2.0000      -0.602678       -16.3997
  14   2.0000      -0.546422       -14.8689
  15   2.0000      -0.514225       -13.9928
  16   2.0000      -0.436955       -11.8902
  17   2.0000      -0.417788       -11.3686
  18   2.0000      -0.405221       -11.0266
  19   2.0000      -0.372441       -10.1346
  20   2.0000      -0.368014       -10.0142
  21   2.0000      -0.352394        -9.5891
  22   2.0000      -0.337079        -9.1724
  23   2.0000      -0.319605        -8.6969
  24   2.0000      -0.296542        -8.0693
  25   2.0000      -0.289932        -7.8894
  26   2.0000      -0.283643        -7.7183
  27   2.0000      -0.241751        -6.5784
  28   2.0000      -0.240489        -6.5440
  29   0.0000       0.005199         0.1415
  30   0.0000       0.045667         1.2427
  31   0.0000       0.056694         1.5427
  32   0.0000       0.058017         1.5787
  33   0.0000       0.065271         1.7761

MULLIKEN ATOMIC CHARGES
-----------------------
   0 C :   -0.297723
   1 C :   -0.187054
   2 C :   -0.165568
   3 C :   -0.152577
   4 C :   -0.195366
   5 Cl:   -0.153707
   6 H :    0.105805
   7 H :    0.104524
   8 H :    0.104969
   9 H :    0.091311
  10 H :    0.088406
  11 H :    0.086146
  12 H :    0.090793
  13 H :    0.097716
  14 H :    0.098461
  15 H :    0.134110
  16 H :    0.149756
Sum of atomic charges:    0.0000000

LOEWDIN ATOMIC CHARGES
----------------------
   0 C :   -0.343263
   1 C :   -0.237825
   2 C :   -0.227656
   3 C :   -0.247444
   4 C :   -0.274430
   5 Cl:    0.015916
   6 H :    0.120737
   7 H :    0.118409
   8 H :    0.113870
   9 H :    0.114808
  10 H :    0.119297
  11 H :    0.115507
  12 H :    0.122636
  13 H :    0.121194
  14 H :    0.120067
  15 H :    0.123489
  16 H :    0.124687

  Mayer bond orders larger than 0.100000
B(  0-C ,  1-C ) :   1.1598 B(  0-C ,  6-H ) :   0.9511 B(  0-C ,  7-H ) :   0.9521
B(  0-C ,  8-H ) :   0.9478 B(  1-C ,  2-C ) :   1.0859 B(  1-C ,  9-H ) :   0.9320
B(  1-C , 10-H ) :   0.9283 B(  2-C ,  3-C ) :   1.1247 B(  2-C , 11-H ) :   0.9272
B(  2-C , 12-H ) :   0.9213 B(  3-C ,  4-C ) :   1.1104 B(  3-C , 13-H ) :   0.9175
B(  3-C , 14-H ) :   0.9170 B(  4-C ,  5-Cl) :   1.0293 B(  4-C , 15-H ) :   0.9253
B(  4-C , 16-H ) :   0.9151

Dispersion correction           -0.013192555
FINAL SINGLE POINT ENERGY      -656.508554974792

DIPOLE MOMENT
-------------

Method             : SCF
Type of density    : Electron Density
Multiplicity       :   1
Irrep              :   0
Energy             :  -656.5661217503791249 Eh
Relativity type    :
Basis              : AO
                                X                 Y                 Z
Electronic contribution:    -16.826837562      -1.442146801       0.769771509
Nuclear contribution   :     17.632501563       1.551417561      -0.861630201
                        -----------------------------------------
Total Dipole Moment    :      0.805664001       0.109270760      -0.091858692
                        -----------------------------------------
Magnitude (a.u.)       :      0.818213053
Magnitude (Debye)      :      2.079732302

Rotational constants in cm-1:             0.206372             0.037260             0.033465
Rotational constants in MHz :          6186.890760          1117.029834          1003.252693

                             ****ORCA TERMINATED NORMALLY****
TOTAL RUN TIME: 0 days 0 hours 0 minutes 7 seconds 316 msec
