                         Program Version 6.0.0  -   RELEASE  -
|  1> ! r2scan-3c def2/J RI DEFGRID2 scfconv6 printgap
|  2> %output
|  3>     printlevel normal
|  4> end
|  5> * xyz 0 1
|  6> C -4.461765187 -1.1624457397 -0.4856444405
|  7> C -3.6994767896 -2.3083511503 -0.3048499433
|  8> C -2.3434628856 -2.2060577484 -0.0558430606
|  9> C -1.7235263098 -0.9600823038 0.0126375678
| 10> C -2.4935926796 0.1936025777 -0.1708151157
| 11> C -3.8608738914 0.0799645629 -0.4170870442
| 12> C -1.8775090281 1.5238882807 -0.1036017392
| 13> O -2.545425748 2.5486318006 -0.2304242045
| 14> C -0.4209974813 1.572126183 0.1135231012
| 15> C 0.1657814136 2.8255377235 0.1183218995
| 16> C 1.5364686577 2.9595783886 0.3226407827
| 17> C 2.3157482098 1.850716449 0.5102479469
| 18> C 1.7660554273 0.5443447393 0.4974254813
| 19> C 0.3543147554 0.4037323424 0.3049741255
| 20> C -0.2740817079 -0.8992676388 0.2898894279
| 21> O 0.3388843506 -1.9623556069 0.496463361
| 22> N 2.5286153334 -0.5356380826 0.6974684869
| 23> C 3.9644632886 -0.640698912 0.6905916964
| 24> C 4.4121557008 -1.7204982135 -0.3071693479
| 25> O 4.1090047399 -1.3946223887 -1.6438213298
| 26> H -5.5201054299 -1.2395371863 -0.6788917079
| 27> H -4.1635240663 -3.2807556544 -0.3574078253
| 28> H -1.7341438203 -3.0856986029 0.0901184079
| 29> H -4.4287435865 0.9886946697 -0.5519370986
| 30> H -0.4654898199 3.6877232264 -0.0317383047
| 31> H 1.9803325373 3.9425411215 0.3397130153
| 32> H 3.3694141347 1.9782368628 0.6929356476
| 33> H 2.023912169 -1.421552441 0.6810714358
| 34> H 4.3148761432 -0.9276756467 1.6873422245
| 35> H 4.4178160634 0.311326146 0.4164010479
| 36> H 3.8767911065 -2.6516834148 -0.1072330959
| 37> H 5.4870898992 -1.8995647706 -0.1846656684
| 38> H 4.6336160977 -0.6287786162 -1.9159456608
| 39> *
| 40>
| 41>                          ****END OF INPUT****

CARTESIAN COORDINATES (ANGSTROEM)
---------------------------------
  C     -4.461765   -1.162446   -0.485644
  C     -3.699477   -2.308351   -0.304850
  C     -2.343463   -2.206058   -0.055843
  C     -1.723526   -0.960082    0.012638
  C     -2.493593    0.193603   -0.170815
  C     -3.860874    0.079965   -0.417087
  C     -1.877509    1.523888   -0.103602
  O     -2.545426    2.548632   -0.230424
  C     -0.420997    1.572126    0.113523
  C      0.165781    2.825538    0.118322
  C      1.536469    2.959578    0.322641
  C      2.315748    1.850716    0.510248
  C      1.766055    0.544345    0.497425
  C      0.354315    0.403732    0.304974
  C     -0.274082   -0.899268    0.289889
  O      0.338884   -1.962356    0.496463
  N      2.528615   -0.535638    0.697468
  C      3.964463   -0.640699    0.690592
  C      4.412156   -1.720498   -0.307169
  O      4.109005   -1.394622   -1.643821
  H     -5.520105   -1.239537   -0.678892
  H     -4.163524   -3.280756   -0.357408
  H     -1.734144   -3.085699    0.090118
  H     -4.428744    0.988695   -0.551937
  H     -0.465490    3.687723   -0.031738
  H      1.980333    3.942541    0.339713
  H      3.369414    1.978237    0.692936
  H      2.023912   -1.421552    0.681071
  H      4.314876   -0.927676    1.687342
  H      4.417816    0.311326    0.416401
  H      3.876791   -2.651683   -0.107233
  H      5.487090   -1.899565   -0.184666
  H      4.633616   -0.628779   -1.915946

 Total Charge           Charge          ....    0
 Multiplicity           Mult            ....    1
 Number of Electrons    NEL             ....  140
 Basis Dimension        Dim             ....  465

ORBITAL ENERGIES
----------------

  NO   OCC          E(Eh)            E(eV)
   0   2.0000     -18.964123      -516.0400
   1   2.0000     -18.939321      -515.3651
   2   2.0000     -18.935097      -515.2502
   3   2.0000     -14.187753      -386.0684
   4   2.0000     -10.121624      -275.4234
   5   2.0000     -10.119252      -275.3589
   6   2.0000     -10.103310      -274.9250
   7   2.0000     -10.096779      -274.7473
   8   2.0000     -10.086562      -274.4693
   9   2.0000     -10.056556      -273.6528
  10   2.0000     -10.056430      -273.6494
  11   2.0000     -10.054639      -273.6006
  12   2.0000     -10.054232      -273.5895
  13   2.0000     -10.053693      -273.5749
  14   2.0000     -10.051439      -273.5136
  15   2.0000     -10.050454      -273.4868
  16   2.0000     -10.049836      -273.4699
  17   2.0000     -10.047837      -273.4155
  18   2.0000     -10.046878      -273.3894
  19   2.0000     -10.038377      -273.1581
  20   2.0000      -1.004149       -27.3243
  21   2.0000      -1.002046       -27.2671
  22   2.0000      -0.999203       -27.1897
  23   2.0000      -0.927685       -25.2436
  24   2.0000      -0.848260       -23.0823
  25   2.0000      -0.832381       -22.6502
  26   2.0000      -0.772397       -21.0180
  27   2.0000      -0.751262       -20.4429
  28   2.0000      -0.734558       -19.9883
  29   2.0000      -0.730088       -19.8667
  30   2.0000      -0.698075       -18.9956
  31   2.0000      -0.649047       -17.6615
  32   2.0000      -0.633212       -17.2306
  33   2.0000      -0.617604       -16.8059
  34   2.0000      -0.601564       -16.3694
  35   2.0000      -0.571628       -15.5548
  36   2.0000      -0.551009       -14.9937
  37   2.0000      -0.523235       -14.2379
  38   2.0000      -0.518930       -14.1208
  39   2.0000      -0.496866       -13.5204
  40   2.0000      -0.480187       -13.0666
  41   2.0000      -0.459911       -12.5148
  42   2.0000      -0.457382       -12.4460
  43   2.0000      -0.448366       -12.2007
  44   2.0000      -0.444308       -12.0902
  45   2.0000      -0.438626       -11.9356
  46   2.0000      -0.422311       -11.4917
  47   2.0000      -0.414486       -11.2787
  48   2.0000      -0.410596       -11.1729
  49   2.0000      -0.404593       -11.0095
  50   2.0000      -0.400487       -10.8978
  51   2.0000      -0.394621       -10.7382
  52   2.0000      -0.383868       -10.4456
  53   2.0000      -0.375624       -10.2213
  54   2.0000      -0.368511       -10.0277
  55   2.0000      -0.362137        -9.8543
  56   2.0000      -0.351823        -9.5736
  57   2.0000      -0.344635        -9.3780
  58   2.0000      -0.334186        -9.0937
  59   2.0000      -0.329530        -8.9670
  60   2.0000      -0.320805        -8.7295
  61   2.0000      -0.315559        -8.5868
  62   2.0000      -0.292556        -7.9609
  63   2.0000      -0.258549        -7.0355
  64   2.0000      -0.256842        -6.9890
  65   2.0000      -0.249585        -6.7915
  66   2.0000      -0.247655        -6.7390
  67   2.0000      -0.231628        -6.3029
  68   2.0000      -0.219623        -5.9763
  69   2.0000      -0.193990        -5.2787
  70   0.0000      -0.126652        -3.4464
  71   0.0000      -0.076426        -2.0796
  72   0.0000      -0.047961        -1.3051
  73   0.0000      -0.025846        -0.7033
  74   0.0000       0.024445         0.6652

MULLIKEN ATOMIC CHARGES
-----------------------
   0 C :   -0.132154
   1 C :   -0.127975
   2 C :   -0.223488
   3 C :    0.186368
   4 C :    0.134497
   5 C :   -0.217136
   6 C :    0.039453
   7 O :   -0.355214
   8 C :    0.192764
   9 C :   -0.253495
  10 C :   -0.126795
  11 C :   -0.347002
  12 C :    0.312154
  13 C :   -0.127432
  14 C :    0.029946
  15 O :   -0.442551
  16 N :   -0.021165
  17 C :   -0.250220
  18 C :   -0.169435
  19 O :   -0.389333
  20 H :    0.148690
  21 H :    0.148486
  22 H :    0.182322
  23 H :    0.181642
  24 H :    0.185192
  25 H :    0.146731
  26 H :    0.133773
  27 H :    0.303169
  28 H :    0.155841
  29 H :    0.128367
  30 H :    0.141777
  31 H :    0.135220
  32 H :    0.297000
Sum of atomic charges:    0.0000000

LOEWDIN ATOMIC CHARGES
----------------------
   0 C :   -0.144244
   1 C :   -0.140545
   2 C :   -0.101767
   3 C :   -0.024457
   4 C :   -0.035902
   5 C :   -0.097463
   6 C :    0.269768
   7 O :   -0.480909
   8 C :   -0.023170
   9 C :   -0.125462
  10 C :   -0.128597
  11 C :   -0.142626
  12 C :    0.207370
  13 C :   -0.034476
  14 C :    0.270914
  15 O :   -0.538760
  16 N :   -0.667392
  17 C :   -0.026093
  18 C :    0.028845
  19 O :   -0.593580
  20 H :    0.170336
  21 H :    0.170287
  22 H :    0.192982
  23 H :    0.191570
  24 H :    0.193679
  25 H :    0.171338
  26 H :    0.170285
  27 H :    0.297033
  28 H :    0.182037
  29 H :    0.178977
  30 H :    0.182890
  31 H :    0.160766
  32 H :    0.266364

  Mayer bond orders larger than 0.100000
B(  0-C ,  1-C ) :   1.3221 B(  0-C ,  5-C ) :   1.3583 B(  0-C , 20-H ) :   0.9556
B(  1-C ,  2-C ) :   1.3508 B(  1-C , 21-H ) :   0.9556 B(  2-C ,  3-C ) :   1.3546
B(  2-C , 15-O ) :   0.1029 B(  2-C , 22-H ) :   0.9590 B(  3-C ,  4-C ) :   1.5180
B(  3-C , 14-C ) :   0.9280 B(  3-C , 15-O ) :  -0.1986 B(  4-C ,  5-C ) :   1.3491
B(  4-C ,  6-C ) :   0.8600 B(  4-C ,  7-O ) :  -0.2232 B(  5-C ,  7-O ) :   0.1085
B(  5-C , 23-H ) :   0.9631 B(  6-C ,  7-O ) :   2.0985 B(  6-C ,  8-C ) :   0.8676
B(  7-O ,  8-C ) :  -0.2162 B(  7-O ,  9-C ) :   0.1242 B(  8-C ,  9-C ) :   1.4048
B(  8-C , 13-C ) :   1.2683 B(  9-C , 10-C ) :   1.2557 B(  9-C , 24-H ) :   0.9654
B( 10-C , 11-C ) :   1.4073 B( 10-C , 25-H ) :   0.9634 B( 11-C , 12-C ) :   1.0952
B( 11-C , 26-H ) :   0.9545 B( 12-C , 13-C ) :   1.2821 B( 12-C , 14-C ) :  -0.1072
B( 12-C , 16-N ) :   1.2767 B( 13-C , 14-C ) :   0.9519 B( 13-C , 15-O ) :  -0.1094
B( 14-C , 15-O ) :   1.8645 B( 16-N , 17-C ) :   0.8343 B( 16-N , 27-H ) :   0.8326
B( 17-C , 18-C ) :   0.9576 B( 17-C , 28-H ) :   0.9461 B( 17-C , 29-H ) :   0.9669
B( 18-C , 19-O ) :   0.9644 B( 18-C , 30-H ) :   0.9660 B( 18-C , 31-H ) :   0.9743
B( 19-O , 32-H ) :   0.8956

Dispersion correction           -0.015624435
FINAL SINGLE POINT ENERGY      -897.781546710787

DIPOLE MOMENT
-------------

Method             : SCF
Type of density    : Electron Density
Multiplicity       :   1
Irrep              :   0
Energy             :  -897.7822669977567784 Eh
Relativity type    :
Basis              : AO
                                X                 Y                 Z
Electronic contribution:    -11.484984346       3.731874066       0.207265558
Nuclear contribution   :     12.981177591      -3.980305595       0.058260303
                        -----------------------------------------
Total Dipole Moment    :      1.496193245      -0.248431529       0.265525861
                        -----------------------------------------
Magnitude (a.u.)       :      1.539745574
Magnitude (Debye)      :      3.913722221

Rotational constants in cm-1:             0.019557             0.008016             0.006014
Rotational constants in MHz :           586.313759           240.314480           180.280901

                             ****ORCA TERMINATED NORMALLY****
TOTAL RUN TIME: 0 days 0 hours 2 minutes 0 seconds 428 msec
