                         Program Version 6.0.0  -   RELEASE  -
|  1> ! r2scan-3c def2/J RI DEFGRID2 scfconv6 printgap
|  2> %output
|  3>     printlevel normal
|  4> end
|  5> %cpcm
|  6>     smd true
|  7>     smdsolvent "water"
|  8> end
|  9> * xyz 0 1
| 10> C -4.461765187 -1.1624457397 -0.4856444405
| 11> C -3.6994767896 -2.3083511503 -0.3048499433
| 12> C -2.3434628856 -2.2060577484 -0.0558430606
| 13> C -1.7235263098 -0.9600823038 0.0126375678
| 14> C -2.4935926796 0.1936025777 -0.1708151157
| 15> C -3.8608738914 0.0799645629 -0.4170870442
| 16> C -1.8775090281 1.5238882807 -0.1036017392
| 17> O -2.545425748 2.5486318006 -0.2304242045
| 18> C -0.4209974813 1.572126183 0.1135231012
| 19> C 0.1657814136 2.8255377235 0.1183218995
| 20> C 1.5364686577 2.9595783886 0.3226407827
| 21> C 2.3157482098 1.850716449 0.5102479469
| 22> C 1.7660554273 0.5443447393 0.4974254813
| 23> C 0.3543147554 0.4037323424 0.3049741255
| 24> C -0.2740817079 -0.8992676388 0.2898894279
| 25> O 0.3388843506 -1.9623556069 0.496463361
| 26> N 2.5286153334 -0.5356380826 0.6974684869
| 27> C 3.9644632886 -0.640698912 0.6905916964
| 28> C 4.4121557008 -1.7204982135 -0.3071693479
| 29> O 4.1090047399 -1.3946223887 -1.6438213298
| 30> H -5.5201054299 -1.2395371863 -0.6788917079
| 31> H -4.1635240663 -3.2807556544 -0.3574078253
| 32> H -1.7341438203 -3.0856986029 0.0901184079
| 33> H -4.4287435865 0.9886946697 -0.5519370986
| 34> H -0.4654898199 3.6877232264 -0.0317383047
| 35> H 1.9803325373 3.9425411215 0.3397130153
| 36> H 3.3694141347 1.9782368628 0.6929356476
| 37> H 2.023912169 -1.421552441 0.6810714358
| 38> H 4.3148761432 -0.9276756467 1.6873422245
| 39> H 4.4178160634 0.311326146 0.4164010479
| 40> H 3.8767911065 -2.6516834148 -0.1072330959
| 41> H 5.4870898992 -1.8995647706 -0.1846656684
| 42> H 4.6336160977 -0.6287786162 -1.9159456608
| 43> *
| 44>
| 45>                          ****END OF INPUT****

CARTESIAN COORDINATES (ANGSTROEM)
---------------------------------
  C     -4.461765   -1.162446   -0.485644
  C     -3.699477   -2.308351   -0.304850
  C     -2.343463   -2.206058   -0.055843
  C     -1.723526   -0.960082    0.012638
  C     -2.493593    0.193603   -0.170815
  C     -3.860874    0.079965   -0.417087
  C     -1.877509    1.523888   -0.103602
  O     -2.545426    2.548632   -0.230424
  C     -0.420997    1.572126    0.113523
  C      0.165781    2.825538    0.118322
  C      1.536469    2.959578    0.322641
  C      2.315748    1.850716    0.510248
  C      1.766055    0.544345    0.497425
  C      0.354315    0.403732    0.304974
  C     -0.274082   -0.899268    0.289889
  O      0.338884   -1.962356    0.496463
  N      2.528615   -0.535638    0.697468
  C      3.964463   -0.640699    0.690592
  C      4.412156   -1.720498   -0.307169
  O      4.109005   -1.394622   -1.643821
  H     -5.520105   -1.239537   -0.678892
  H     -4.163524   -3.280756   -0.357408
  H     -1.734144   -3.085699    0.090118
  H     -4.428744    0.988695   -0.551937
  H     -0.465490    3.687723   -0.031738
  H      1.980333    3.942541    0.339713
  H      3.369414    1.978237    0.692936
  H      2.023912   -1.421552    0.681071
  H      4.314876   -0.927676    1.687342
  H      4.417816    0.311326    0.416401
  H      3.876791   -2.651683   -0.107233
  H      5.487090   -1.899565   -0.184666
  H      4.633616   -0.628779   -1.915946

 Total Charge           Charge          ....    0
 Multiplicity           Mult            ....    1
 Number of Electrons    NEL             ....  140
 Basis Dimension        Dim             ....  465

ORBITAL ENERGIES
----------------

  NO   OCC          E(Eh)            E(eV)
   0   2.0000     -18.955456      -515.8042
   1   2.0000     -18.948530      -515.6157
   2   2.0000     -18.946126      -515.5503
   3   2.0000     -14.185207      -385.9991
   4   2.0000     -10.131357      -275.6882
   5   2.0000     -10.127111      -275.5727
   6   2.0000     -10.102026      -274.8901
   7   2.0000     -10.077656      -274.2270
   8   2.0000     -10.064839      -273.8782
   9   2.0000     -10.059981      -273.7460
  10   2.0000     -10.059691      -273.7381
  11   2.0000     -10.057993      -273.6919
  12   2.0000     -10.056025      -273.6384
  13   2.0000     -10.049844      -273.4702
  14   2.0000     -10.049787      -273.4686
  15   2.0000     -10.049589      -273.4632
  16   2.0000     -10.048098      -273.4227
  17   2.0000     -10.047843      -273.4157
  18   2.0000     -10.046050      -273.3669
  19   2.0000     -10.041631      -273.2467
  20   2.0000      -1.015545       -27.6344
  21   2.0000      -1.011243       -27.5173
  22   2.0000      -0.992624       -27.0107
  23   2.0000      -0.923229       -25.1224
  24   2.0000      -0.851064       -23.1586
  25   2.0000      -0.832728       -22.6597
  26   2.0000      -0.772993       -21.0342
  27   2.0000      -0.743783       -20.2394
  28   2.0000      -0.736855       -20.0508
  29   2.0000      -0.730126       -19.8677
  30   2.0000      -0.690942       -18.8015
  31   2.0000      -0.651309       -17.7230
  32   2.0000      -0.628165       -17.0933
  33   2.0000      -0.613227       -16.6868
  34   2.0000      -0.596357       -16.2277
  35   2.0000      -0.568565       -15.4714
  36   2.0000      -0.552073       -15.0227
  37   2.0000      -0.520257       -14.1569
  38   2.0000      -0.517121       -14.0716
  39   2.0000      -0.490032       -13.3345
  40   2.0000      -0.477143       -12.9837
  41   2.0000      -0.462207       -12.5773
  42   2.0000      -0.449842       -12.2408
  43   2.0000      -0.442845       -12.0504
  44   2.0000      -0.437242       -11.8980
  45   2.0000      -0.432710       -11.7746
  46   2.0000      -0.421073       -11.4580
  47   2.0000      -0.417865       -11.3707
  48   2.0000      -0.412170       -11.2157
  49   2.0000      -0.406157       -11.0521
  50   2.0000      -0.400558       -10.8998
  51   2.0000      -0.397787       -10.8243
  52   2.0000      -0.385125       -10.4798
  53   2.0000      -0.382001       -10.3948
  54   2.0000      -0.367999       -10.0138
  55   2.0000      -0.355254        -9.6670
  56   2.0000      -0.346349        -9.4246
  57   2.0000      -0.343460        -9.3460
  58   2.0000      -0.336811        -9.1651
  59   2.0000      -0.328796        -8.9470
  60   2.0000      -0.322206        -8.7677
  61   2.0000      -0.306162        -8.3311
  62   2.0000      -0.291058        -7.9201
  63   2.0000      -0.264496        -7.1973
  64   2.0000      -0.252047        -6.8585
  65   2.0000      -0.250867        -6.8264
  66   2.0000      -0.250790        -6.8243
  67   2.0000      -0.243760        -6.6331
  68   2.0000      -0.230593        -6.2747
  69   2.0000      -0.193772        -5.2728
  70   0.0000      -0.133326        -3.6280
  71   0.0000      -0.079926        -2.1749
  72   0.0000      -0.048715        -1.3256
  73   0.0000      -0.027353        -0.7443
  74   0.0000       0.023995         0.6529

MULLIKEN ATOMIC CHARGES
-----------------------
   0 C :   -0.169913
   1 C :   -0.159042
   2 C :   -0.239032
   3 C :    0.194953
   4 C :    0.133822
   5 C :   -0.229128
   6 C :    0.083158
   7 O :   -0.441914
   8 C :    0.180600
   9 C :   -0.255387
  10 C :   -0.172058
  11 C :   -0.326793
  12 C :    0.286955
  13 C :   -0.130795
  14 C :    0.043203
  15 O :   -0.508475
  16 N :   -0.073584
  17 C :   -0.235716
  18 C :   -0.171347
  19 O :   -0.481575
  20 H :    0.185227
  21 H :    0.185461
  22 H :    0.197170
  23 H :    0.195861
  24 H :    0.197410
  25 H :    0.184042
  26 H :    0.178664
  27 H :    0.345236
  28 H :    0.174397
  29 H :    0.165569
  30 H :    0.156263
  31 H :    0.154327
  32 H :    0.352443
Sum of atomic charges:    0.0000000

LOEWDIN ATOMIC CHARGES
----------------------
   0 C :   -0.139754
   1 C :   -0.132376
   2 C :   -0.108887
   3 C :   -0.027205
   4 C :   -0.042682
   5 C :   -0.102185
   6 C :    0.276083
   7 O :   -0.550339
   8 C :   -0.032530
   9 C :   -0.127268
  10 C :   -0.125698
  11 C :   -0.121536
  12 C :    0.203462
  13 C :   -0.041628
  14 C :    0.269412
  15 O :   -0.586111
  16 N :   -0.660184
  17 C :   -0.014814
  18 C :    0.033128
  19 O :   -0.632981
  20 H :    0.184220
  21 H :    0.184446
  22 H :    0.196639
  23 H :    0.194944
  24 H :    0.195851
  25 H :    0.186037
  26 H :    0.189813
  27 H :    0.299370
  28 H :    0.193494
  29 H :    0.195125
  30 H :    0.185836
  31 H :    0.172535
  32 H :    0.285782

  Mayer bond orders larger than 0.100000
B(  0-C ,  1-C ) :   1.3097 B(  0-C ,  5-C ) :   1.3547 B(  0-C , 20-H ) :   0.9604
B(  1-C ,  2-C ) :   1.3409 B(  1-C , 21-H ) :   0.9603 B(  2-C ,  3-C ) :   1.2977
B(  2-C , 15-O ) :   0.1004 B(  2-C , 22-H ) :   0.9719 B(  3-C ,  4-C ) :   1.5058
B(  3-C , 14-C ) :   0.9216 B(  3-C , 15-O ) :  -0.1984 B(  4-C ,  5-C ) :   1.2875
B(  4-C ,  6-C ) :   0.8702 B(  4-C ,  7-O ) :  -0.2231 B(  5-C ,  7-O ) :   0.1044
B(  5-C , 23-H ) :   0.9738 B(  6-C ,  7-O ) :   2.0579 B(  6-C ,  8-C ) :   0.8792
B(  7-O ,  8-C ) :  -0.2148 B(  7-O ,  9-C ) :   0.1228 B(  8-C ,  9-C ) :   1.3380
B(  8-C , 13-C ) :   1.2548 B(  9-C , 10-C ) :   1.2311 B(  9-C , 24-H ) :   0.9786
B( 10-C , 11-C ) :   1.4008 B( 10-C , 25-H ) :   0.9742 B( 11-C , 12-C ) :   1.0964
B( 11-C , 26-H ) :   0.9615 B( 12-C , 13-C ) :   1.2356 B( 12-C , 16-N ) :   1.2922
B( 13-C , 14-C ) :   0.9702 B( 13-C , 15-O ) :  -0.1172 B( 14-C , 15-O ) :   1.8445
B( 16-N , 17-C ) :   0.8422 B( 16-N , 27-H ) :   0.8250 B( 17-C , 18-C ) :   0.9477
B( 17-C , 28-H ) :   0.9366 B( 17-C , 29-H ) :   0.9559 B( 18-C , 19-O ) :   0.9546
B( 18-C , 30-H ) :   0.9680 B( 18-C , 31-H ) :   0.9631 B( 19-O , 32-H ) :   0.8679

Dispersion correction           -0.015624435
FINAL SINGLE POINT ENERGY      -897.804346285402

DIPOLE MOMENT
-------------

Method             : SCF
Type of density    : Electron Density
Multiplicity       :   1
Irrep              :   0
Energy             :  -897.8050665723717430 Eh
Relativity type    :
Basis              : AO
                                X                 Y                 Z
Electronic contribution:    -10.595961948       3.739164453       0.427945833
Nuclear contribution   :     12.981177591      -3.980305595       0.058260303
                        -----------------------------------------
Total Dipole Moment    :      2.385215643      -0.241141142       0.486206136
                        -----------------------------------------
Magnitude (a.u.)       :      2.446180517
Magnitude (Debye)      :      6.217696745

Rotational constants in cm-1:             0.019557             0.008016             0.006014
Rotational constants in MHz :           586.313759           240.314480           180.280901

                             ****ORCA TERMINATED NORMALLY****
TOTAL RUN TIME: 0 days 0 hours 2 minutes 37 seconds 297 msec
