                         Program Version 6.0.0  -   RELEASE  -
|  1> ! pbe def2-sv(p) def2/J RI DEFGRID1 loosescf d4 GCP(DFT/SV(P)) printgap
|  2> %output
|  3>     printlevel normal
|  4> end
|  5> * xyz 0 1
|  6> C -3.5873156647 -0.9062031459 0.6281057848
|  7> C -2.6699320837 -0.003019313 -0.1877812756
|  8> C -1.2056389583 -0.1904644827 0.2037757607
|  9> C -0.2893023242 0.7213902626 -0.6133776802
| 10> C 1.1678166737 0.5872808027 -0.2545507337
| 11> O 1.9498831783 1.5170701465 -0.2318343562
| 12> O 1.5076893424 -0.6639297263 0.0197644177
| 13> C 2.8653325402 -0.9560471741 0.3634291964
| 14> H -3.3294100676 -1.9510424037 0.4728127551
| 15> H -3.4947565865 -0.6849074764 1.6887718245
| 16> H -4.6239218666 -0.7602129859 0.3358662734
| 17> H -2.7914984108 -0.2262737956 -1.2494356497
| 18> H -2.9548575311 1.0395020655 -0.0323848849
| 19> H -0.9140038453 -1.2294354215 0.0461281853
| 20> H -1.0833374321 0.033396196 1.2654375185
| 21> H -0.5648976639 1.7696253418 -0.4898855118
| 22> H -0.3800216152 0.4739313192 -1.6741879569
| 23> H 3.4052134361 -0.030153449 0.5647247374
| 24> H 3.3252861737 -1.4837071488 -0.4710511086
| 25> H 2.8399800425 -1.5908259657 1.2459952985
| 26> *
| 27>
| 28>                          ****END OF INPUT****

CARTESIAN COORDINATES (ANGSTROEM)
---------------------------------
  C     -3.587316   -0.906203    0.628106
  C     -2.669932   -0.003019   -0.187781
  C     -1.205639   -0.190464    0.203776
  C     -0.289302    0.721390   -0.613378
  C      1.167817    0.587281   -0.254551
  O      1.949883    1.517070   -0.231834
  O      1.507689   -0.663930    0.019764
  C      2.865333   -0.956047    0.363429
  H     -3.329410   -1.951042    0.472813
  H     -3.494757   -0.684907    1.688772
  H     -4.623922   -0.760213    0.335866
  H     -2.791498   -0.226274   -1.249436
  H     -2.954858    1.039502   -0.032385
  H     -0.914004   -1.229435    0.046128
  H     -1.083337    0.033396    1.265438
  H     -0.564898    1.769625   -0.489886
  H     -0.380022    0.473931   -1.674188
  H      3.405213   -0.030153    0.564725
  H      3.325286   -1.483707   -0.471051
  H      2.839980   -1.590826    1.245995

 Total Charge           Charge          ....    0
 Multiplicity           Mult            ....    1
 Number of Electrons    NEL             ....   64
 Basis Dimension        Dim             ....  136

ORBITAL ENERGIES
----------------

  NO   OCC          E(Eh)            E(eV)
   0   2.0000     -18.799030      -511.5476
   1   2.0000     -18.730191      -509.6744
   2   2.0000     -10.002517      -272.1823
   3   2.0000      -9.938935      -270.4522
   4   2.0000      -9.895459      -269.2691
   5   2.0000      -9.888824      -269.0886
   6   2.0000      -9.887332      -269.0480
   7   2.0000      -9.875964      -268.7386
   8   2.0000      -1.004187       -27.3253
   9   2.0000      -0.906089       -24.6559
  10   2.0000      -0.731977       -19.9181
  11   2.0000      -0.686177       -18.6718
  12   2.0000      -0.644477       -17.5371
  13   2.0000      -0.579879       -15.7793
  14   2.0000      -0.521391       -14.1878
  15   2.0000      -0.507120       -13.7994
  16   2.0000      -0.445389       -12.1196
  17   2.0000      -0.441700       -12.0193
  18   2.0000      -0.426084       -11.5943
  19   2.0000      -0.405845       -11.0436
  20   2.0000      -0.388702       -10.5771
  21   2.0000      -0.375935       -10.2297
  22   2.0000      -0.368786       -10.0352
  23   2.0000      -0.347515        -9.4564
  24   2.0000      -0.332778        -9.0553
  25   2.0000      -0.315702        -8.5907
  26   2.0000      -0.304089        -8.2747
  27   2.0000      -0.296247        -8.0613
  28   2.0000      -0.293888        -7.9971
  29   2.0000      -0.285925        -7.7804
  30   2.0000      -0.254633        -6.9289
  31   2.0000      -0.214016        -5.8237
  32   0.0000      -0.016133        -0.4390
  33   0.0000       0.036311         0.9881
  34   0.0000       0.055301         1.5048
  35   0.0000       0.063825         1.7368
  36   0.0000       0.068931         1.8757

MULLIKEN ATOMIC CHARGES
-----------------------
   0 C :   -0.254807
   1 C :   -0.178579
   2 C :   -0.211004
   3 C :   -0.135486
   4 C :    0.112153
   5 O :   -0.200979
   6 O :   -0.243254
   7 C :   -0.128832
   8 H :    0.097240
   9 H :    0.098033
  10 H :    0.102734
  11 H :    0.082801
  12 H :    0.085327
  13 H :    0.096823
  14 H :    0.087901
  15 H :    0.102121
  16 H :    0.110792
  17 H :    0.133624
  18 H :    0.121407
  19 H :    0.121985
Sum of atomic charges:    0.0000000

LOEWDIN ATOMIC CHARGES
----------------------
   0 C :   -0.339247
   1 C :   -0.233943
   2 C :   -0.227365
   3 C :   -0.242418
   4 C :    0.034318
   5 O :   -0.172939
   6 O :   -0.071007
   7 C :   -0.208545
   8 H :    0.117067
   9 H :    0.117390
  10 H :    0.119233
  11 H :    0.114293
  12 H :    0.114740
  13 H :    0.119357
  14 H :    0.117347
  15 H :    0.135102
  16 H :    0.141667
  17 H :    0.124575
  18 H :    0.119866
  19 H :    0.120510

  Mayer bond orders larger than 0.100000
B(  0-C ,  1-C ) :   1.1599 B(  0-C ,  8-H ) :   0.9544 B(  0-C ,  9-H ) :   0.9542
B(  0-C , 10-H ) :   0.9529 B(  1-C ,  2-C ) :   1.1328 B(  1-C , 11-H ) :   0.9250
B(  1-C , 12-H ) :   0.9246 B(  2-C ,  3-C ) :   1.1175 B(  2-C , 13-H ) :   0.9127
B(  2-C , 14-H ) :   0.9307 B(  3-C ,  4-C ) :   1.0250 B(  3-C , 15-H ) :   0.9112
B(  3-C , 16-H ) :   0.8867 B(  4-C ,  5-O ) :   2.0843 B(  4-C ,  6-O ) :   1.2010
B(  6-O ,  7-C ) :   0.9371 B(  7-C , 17-H ) :   0.9294 B(  7-C , 18-H ) :   0.9607
B(  7-C , 19-H ) :   0.9608

Dispersion correction           -0.014530437
FINAL SINGLE POINT ENERGY      -385.451316285279

DIPOLE MOMENT
-------------

Method             : SCF
Type of density    : Electron Density
Multiplicity       :   1
Irrep              :   0
Energy             :  -385.5267062767704829 Eh
Relativity type    :
Basis              : AO
                                X                 Y                 Z
Electronic contribution:      9.639894983       3.580472308      -1.528664198
Nuclear contribution   :     -9.861611309      -4.340540284       1.594357654
                        -----------------------------------------
Total Dipole Moment    :     -0.221716325      -0.760067976       0.065693456
                        -----------------------------------------
Magnitude (a.u.)       :      0.794466543
Magnitude (Debye)      :      2.019373470

Rotational constants in cm-1:             0.152332             0.028802             0.025216
Rotational constants in MHz :          4566.785164           863.455408           755.971496

                             ****ORCA TERMINATED NORMALLY****
TOTAL RUN TIME: 0 days 0 hours 0 minutes 9 seconds 738 msec
