                         Program Version 6.0.0  -   RELEASE  -
|  1> ! r2scan-3c def2/J RI DEFGRID2 scfconv6 printgap
|  2> %output
|  3>     printlevel normal
|  4> end
|  5> * xyz 0 1
|  6> C -2.6273307883 -0.9697151696 -0.6190304138
|  7> C -2.0884529985 -0.5308998338 0.7370991525
|  8> C -1.3426565384 0.8071565599 0.6473457865
|  9> C -0.1023063413 0.676315298 -0.1987560121
| 10> O 0.0755752068 1.2330517575 -1.2638128983
| 11> O 0.7861981066 -0.1297435632 0.3629129713
| 12> C 2.0318511835 -0.3679334211 -0.3125469676
| 13> C 3.097657568 -0.6538592674 0.7292988307
| 14> H -3.328832947 -0.2346287175 -1.0064803627
| 15> H -1.8182035482 -1.073734981 -1.3398913312
| 16> H -3.1385701131 -1.9248799538 -0.5337039867
| 17> H -1.4078128538 -1.2880359514 1.1290054634
| 18> H -2.9163783973 -0.419343352 1.4378796001
| 19> H -1.0368071821 1.117958823 1.6465345108
| 20> H -1.9798361311 1.5712618872 0.2026252796
| 21> H 1.8915552803 -1.2227935142 -0.9816167301
| 22> H 2.2741106745 0.5127187768 -0.9162869035
| 23> H 3.2211037833 0.2032554225 1.3851867057
| 24> H 2.8097872237 -1.5137101476 1.3267744313
| 25> H 4.0392131594 -0.8611279448 0.231693993
| 26> *
| 27>
| 28>                          ****END OF INPUT****

CARTESIAN COORDINATES (ANGSTROEM)
---------------------------------
  C     -2.627331   -0.969715   -0.619030
  C     -2.088453   -0.530900    0.737099
  C     -1.342657    0.807157    0.647346
  C     -0.102306    0.676315   -0.198756
  O      0.075575    1.233052   -1.263813
  O      0.786198   -0.129744    0.362913
  C      2.031851   -0.367933   -0.312547
  C      3.097658   -0.653859    0.729299
  H     -3.328833   -0.234629   -1.006480
  H     -1.818204   -1.073735   -1.339891
  H     -3.138570   -1.924880   -0.533704
  H     -1.407813   -1.288036    1.129005
  H     -2.916378   -0.419343    1.437880
  H     -1.036807    1.117959    1.646535
  H     -1.979836    1.571262    0.202625
  H      1.891555   -1.222794   -0.981617
  H      2.274111    0.512719   -0.916287
  H      3.221104    0.203255    1.385187
  H      2.809787   -1.513710    1.326774
  H      4.039213   -0.861128    0.231694

 Total Charge           Charge          ....    0
 Multiplicity           Mult            ....    1
 Number of Electrons    NEL             ....   64
 Basis Dimension        Dim             ....  222

ORBITAL ENERGIES
----------------

  NO   OCC          E(Eh)            E(eV)
   0   2.0000     -18.996322      -516.9162
   1   2.0000     -18.925886      -514.9995
   2   2.0000     -10.150435      -276.2074
   3   2.0000     -10.091180      -274.5950
   4   2.0000     -10.040345      -273.2117
   5   2.0000     -10.036833      -273.1161
   6   2.0000     -10.032324      -272.9934
   7   2.0000     -10.019249      -272.6376
   8   2.0000      -1.071343       -29.1527
   9   2.0000      -0.973195       -26.4820
  10   2.0000      -0.775985       -21.1156
  11   2.0000      -0.741534       -20.1782
  12   2.0000      -0.677545       -18.4369
  13   2.0000      -0.617010       -16.7897
  14   2.0000      -0.569266       -15.4905
  15   2.0000      -0.532661       -14.4944
  16   2.0000      -0.473693       -12.8898
  17   2.0000      -0.447691       -12.1823
  18   2.0000      -0.441675       -12.0186
  19   2.0000      -0.424619       -11.5545
  20   2.0000      -0.410569       -11.1722
  21   2.0000      -0.382864       -10.4183
  22   2.0000      -0.375584       -10.2202
  23   2.0000      -0.370473       -10.0811
  24   2.0000      -0.355094        -9.6626
  25   2.0000      -0.337733        -9.1902
  26   2.0000      -0.324369        -8.8265
  27   2.0000      -0.312130        -8.4935
  28   2.0000      -0.309488        -8.4216
  29   2.0000      -0.308290        -8.3890
  30   2.0000      -0.269910        -7.3446
  31   2.0000      -0.230658        -6.2765
  32   0.0000      -0.014224        -0.3871
  33   0.0000       0.072308         1.9676
  34   0.0000       0.094582         2.5737
  35   0.0000       0.114688         3.1208
  36   0.0000       0.119110         3.2411

MULLIKEN ATOMIC CHARGES
-----------------------
   0 C :   -0.480888
   1 C :   -0.232119
   2 C :   -0.311334
   3 C :    0.359345
   4 O :   -0.424627
   5 O :   -0.167977
   6 C :   -0.149442
   7 C :   -0.443123
   8 H :    0.148943
   9 H :    0.156632
  10 H :    0.147079
  11 H :    0.151994
  12 H :    0.146268
  13 H :    0.157232
  14 H :    0.168116
  15 H :    0.144942
  16 H :    0.177783
  17 H :    0.152542
  18 H :    0.151793
  19 H :    0.146841
Sum of atomic charges:    0.0000000

LOEWDIN ATOMIC CHARGES
----------------------
   0 C :   -0.415168
   1 C :   -0.292797
   2 C :   -0.230933
   3 C :    0.351714
   4 O :   -0.432466
   5 O :   -0.601626
   6 C :    0.032957
   7 C :   -0.386884
   8 H :    0.153414
   9 H :    0.156942
  10 H :    0.151454
  11 H :    0.163005
  12 H :    0.153209
  13 H :    0.178766
  14 H :    0.177119
  15 H :    0.174159
  16 H :    0.190606
  17 H :    0.158772
  18 H :    0.158427
  19 H :    0.159332

  Mayer bond orders larger than 0.100000
B(  0-C ,  1-C ) :   0.9141 B(  0-C ,  8-H ) :   0.9778 B(  0-C ,  9-H ) :   0.9706
B(  0-C , 10-H ) :   0.9705 B(  1-C ,  2-C ) :   0.8834 B(  1-C , 11-H ) :   0.9747
B(  1-C , 12-H ) :   0.9641 B(  2-C ,  3-C ) :   0.9589 B(  2-C , 13-H ) :   0.9473
B(  2-C , 14-H ) :   1.0022 B(  3-C ,  4-O ) :   1.8457 B(  3-C ,  5-O ) :   1.0524
B(  5-O ,  6-C ) :   0.7861 B(  6-C ,  7-C ) :   0.9487 B(  6-C , 15-H ) :   0.9449
B(  6-C , 16-H ) :   0.9655 B(  7-C , 17-H ) :   0.9748 B(  7-C , 18-H ) :   0.9690
B(  7-C , 19-H ) :   0.9677

Dispersion correction           -0.005088639
FINAL SINGLE POINT ENERGY      -386.234943040726

DIPOLE MOMENT
-------------

Method             : SCF
Type of density    : Electron Density
Multiplicity       :   1
Irrep              :   0
Energy             :  -386.2415618534030273 Eh
Relativity type    :
Basis              : AO
                                X                 Y                 Z
Electronic contribution:      1.488702958       4.232959481      -1.722312348
Nuclear contribution   :     -1.291902751      -4.799305591       2.408725664
                        -----------------------------------------
Total Dipole Moment    :      0.196800207      -0.566346110       0.686413315
                        -----------------------------------------
Magnitude (a.u.)       :      0.911395347
Magnitude (Debye)      :      2.316582869

Rotational constants in cm-1:             0.120024             0.036222             0.033163
Rotational constants in MHz :          3598.230261          1085.914486           994.192548

                             ****ORCA TERMINATED NORMALLY****
TOTAL RUN TIME: 0 days 0 hours 0 minutes 30 seconds 969 msec
