                         Program Version 6.0.0  -   RELEASE  -
|  1> ! r2scan-3c def2/J RI DEFGRID2 scfconv6 printgap
|  2> %output
|  3>     printlevel normal
|  4> end
|  5> %cpcm
|  6>     smd true
|  7>     smdsolvent "water"
|  8> end
|  9> * xyz 0 1
| 10> C -2.6273307883 -0.9697151696 -0.6190304138
| 11> C -2.0884529985 -0.5308998338 0.7370991525
| 12> C -1.3426565384 0.8071565599 0.6473457865
| 13> C -0.1023063413 0.676315298 -0.1987560121
| 14> O 0.0755752068 1.2330517575 -1.2638128983
| 15> O 0.7861981066 -0.1297435632 0.3629129713
| 16> C 2.0318511835 -0.3679334211 -0.3125469676
| 17> C 3.097657568 -0.6538592674 0.7292988307
| 18> H -3.328832947 -0.2346287175 -1.0064803627
| 19> H -1.8182035482 -1.073734981 -1.3398913312
| 20> H -3.1385701131 -1.9248799538 -0.5337039867
| 21> H -1.4078128538 -1.2880359514 1.1290054634
| 22> H -2.9163783973 -0.419343352 1.4378796001
| 23> H -1.0368071821 1.117958823 1.6465345108
| 24> H -1.9798361311 1.5712618872 0.2026252796
| 25> H 1.8915552803 -1.2227935142 -0.9816167301
| 26> H 2.2741106745 0.5127187768 -0.9162869035
| 27> H 3.2211037833 0.2032554225 1.3851867057
| 28> H 2.8097872237 -1.5137101476 1.3267744313
| 29> H 4.0392131594 -0.8611279448 0.231693993
| 30> *
| 31>
| 32>                          ****END OF INPUT****

CARTESIAN COORDINATES (ANGSTROEM)
---------------------------------
  C     -2.627331   -0.969715   -0.619030
  C     -2.088453   -0.530900    0.737099
  C     -1.342657    0.807157    0.647346
  C     -0.102306    0.676315   -0.198756
  O      0.075575    1.233052   -1.263813
  O      0.786198   -0.129744    0.362913
  C      2.031851   -0.367933   -0.312547
  C      3.097658   -0.653859    0.729299
  H     -3.328833   -0.234629   -1.006480
  H     -1.818204   -1.073735   -1.339891
  H     -3.138570   -1.924880   -0.533704
  H     -1.407813   -1.288036    1.129005
  H     -2.916378   -0.419343    1.437880
  H     -1.036807    1.117959    1.646535
  H     -1.979836    1.571262    0.202625
  H      1.891555   -1.222794   -0.981617
  H      2.274111    0.512719   -0.916287
  H      3.221104    0.203255    1.385187
  H      2.809787   -1.513710    1.326774
  H      4.039213   -0.861128    0.231694

 Total Charge           Charge          ....    0
 Multiplicity           Mult            ....    1
 Number of Electrons    NEL             ....   64
 Basis Dimension        Dim             ....  222

ORBITAL ENERGIES
----------------

  NO   OCC          E(Eh)            E(eV)
   0   2.0000     -19.002019      -517.0712
   1   2.0000     -18.942955      -515.4640
   2   2.0000     -10.162001      -276.5221
   3   2.0000     -10.083303      -274.3806
   4   2.0000     -10.035303      -273.0745
   5   2.0000     -10.028978      -272.9024
   6   2.0000     -10.018590      -272.6197
   7   2.0000     -10.011677      -272.4316
   8   2.0000      -1.078941       -29.3595
   9   2.0000      -0.988000       -26.8848
  10   2.0000      -0.771374       -20.9901
  11   2.0000      -0.733425       -19.9575
  12   2.0000      -0.671911       -18.2836
  13   2.0000      -0.610364       -16.6088
  14   2.0000      -0.563311       -15.3285
  15   2.0000      -0.530816       -14.4442
  16   2.0000      -0.472328       -12.8527
  17   2.0000      -0.455022       -12.3818
  18   2.0000      -0.445237       -12.1155
  19   2.0000      -0.421454       -11.4683
  20   2.0000      -0.406476       -11.0608
  21   2.0000      -0.377126       -10.2621
  22   2.0000      -0.372043       -10.1238
  23   2.0000      -0.363213        -9.8835
  24   2.0000      -0.350043        -9.5252
  25   2.0000      -0.332354        -9.0438
  26   2.0000      -0.318411        -8.6644
  27   2.0000      -0.310194        -8.4408
  28   2.0000      -0.306672        -8.3450
  29   2.0000      -0.302499        -8.2314
  30   2.0000      -0.275499        -7.4967
  31   2.0000      -0.247337        -6.7304
  32   0.0000      -0.023169        -0.6305
  33   0.0000       0.076529         2.0825
  34   0.0000       0.103442         2.8148
  35   0.0000       0.123756         3.3676
  36   0.0000       0.126727         3.4484

MULLIKEN ATOMIC CHARGES
-----------------------
   0 C :   -0.528278
   1 C :   -0.223374
   2 C :   -0.332492
   3 C :    0.398539
   4 O :   -0.513653
   5 O :   -0.183012
   6 C :   -0.144836
   7 C :   -0.488470
   8 H :    0.163119
   9 H :    0.161638
  10 H :    0.161755
  11 H :    0.156144
  12 H :    0.164098
  13 H :    0.185803
  14 H :    0.177908
  15 H :    0.171827
  16 H :    0.175173
  17 H :    0.165318
  18 H :    0.164563
  19 H :    0.168231
Sum of atomic charges:    0.0000000

LOEWDIN ATOMIC CHARGES
----------------------
   0 C :   -0.423282
   1 C :   -0.289171
   2 C :   -0.228954
   3 C :    0.360923
   4 O :   -0.495919
   5 O :   -0.601287
   6 C :    0.036914
   7 C :   -0.390008
   8 H :    0.156143
   9 H :    0.156174
  10 H :    0.156343
  11 H :    0.164343
  12 H :    0.160397
  13 H :    0.189990
  14 H :    0.181089
  15 H :    0.184039
  16 H :    0.190470
  17 H :    0.161786
  18 H :    0.162103
  19 H :    0.167906

  Mayer bond orders larger than 0.100000
B(  0-C ,  1-C ) :   0.8975 B(  0-C ,  8-H ) :   0.9770 B(  0-C ,  9-H ) :   0.9699
B(  0-C , 10-H ) :   0.9663 B(  1-C ,  2-C ) :   0.8757 B(  1-C , 11-H ) :   0.9733
B(  1-C , 12-H ) :   0.9610 B(  2-C ,  3-C ) :   0.9584 B(  2-C , 13-H ) :   0.9383
B(  2-C , 14-H ) :   0.9973 B(  3-C ,  4-O ) :   1.7701 B(  3-C ,  5-O ) :   1.0835
B(  5-O ,  6-C ) :   0.7740 B(  6-C ,  7-C ) :   0.9455 B(  6-C , 15-H ) :   0.9362
B(  6-C , 16-H ) :   0.9609 B(  7-C , 17-H ) :   0.9730 B(  7-C , 18-H ) :   0.9661
B(  7-C , 19-H ) :   0.9615

Dispersion correction           -0.005088639
FINAL SINGLE POINT ENERGY      -386.240408180503

DIPOLE MOMENT
-------------

Method             : SCF
Type of density    : Electron Density
Multiplicity       :   1
Irrep              :   0
Energy             :  -386.2470269931804978 Eh
Relativity type    :
Basis              : AO
                                X                 Y                 Z
Electronic contribution:      1.523193140       4.019060896      -1.420369866
Nuclear contribution   :     -1.291902751      -4.799305591       2.408725664
                        -----------------------------------------
Total Dipole Moment    :      0.231290390      -0.780244695       0.988355798
                        -----------------------------------------
Magnitude (a.u.)       :      1.280282864
Magnitude (Debye)      :      3.254220423

Rotational constants in cm-1:             0.120024             0.036222             0.033163
Rotational constants in MHz :          3598.230261          1085.914486           994.192548

                             ****ORCA TERMINATED NORMALLY****
TOTAL RUN TIME: 0 days 0 hours 0 minutes 37 seconds 183 msec
