                         Program Version 6.0.0  -   RELEASE  -
|  1> ! r2scan-3c def2/J RI DEFGRID2 scfconv6 printgap
|  2> %output
|  3>     printlevel normal
|  4> end
|  5> * xyz 0 1
|  6> C -3.8673897145 -0.6955924733 -0.1505559482
|  7> C -2.5082941913 -0.304009587 0.4156321861
|  8> C -1.9009331004 0.8711925939 -0.3456619563
|  9> C -0.577116152 1.3352180206 0.2218297803
| 10> I 1.0150565822 -0.1340085584 -0.0154809665
| 11> H -4.5648321978 0.1360372916 -0.0810189346
| 12> H -3.7767698232 -0.9818071836 -1.1958306812
| 13> H -4.2789061269 -1.5367169576 0.4008411891
| 14> H -1.8344234057 -1.1620792488 0.3575530565
| 15> H -2.6155162392 -0.0360484943 1.4695712283
| 16> H -1.7855312846 0.6049196271 -1.3987119183
| 17> H -2.5855257948 1.7229868972 -0.292794132
| 18> H -0.6416473888 1.5188798022 1.291045465
| 19> H -0.2151513057 2.2256677024 -0.2846091247
| 20> *
| 21>
| 22>                          ****END OF INPUT****

CARTESIAN COORDINATES (ANGSTROEM)
---------------------------------
  C     -3.867390   -0.695592   -0.150556
  C     -2.508294   -0.304010    0.415632
  C     -1.900933    0.871193   -0.345662
  C     -0.577116    1.335218    0.221830
  I      1.015057   -0.134009   -0.015481
  H     -4.564832    0.136037   -0.081019
  H     -3.776770   -0.981807   -1.195831
  H     -4.278906   -1.536717    0.400841
  H     -1.834423   -1.162079    0.357553
  H     -2.615516   -0.036048    1.469571
  H     -1.785531    0.604920   -1.398712
  H     -2.585526    1.722987   -0.292794
  H     -0.641647    1.518880    1.291045
  H     -0.215151    2.225668   -0.284609

 Total Charge           Charge          ....    0
 Multiplicity           Mult            ....    1
 Number of Electrons    NEL             ....   58
 Basis Dimension        Dim             ....  157

ORBITAL ENERGIES
----------------

  NO   OCC          E(Eh)            E(eV)
   0   2.0000     -10.085002      -274.4269
   1   2.0000     -10.045184      -273.3433
   2   2.0000     -10.032246      -272.9913
   3   2.0000     -10.022038      -272.7135
   4   2.0000      -6.803047      -185.1203
   5   2.0000      -4.821390      -131.1967
   6   2.0000      -4.805625      -130.7677
   7   2.0000      -4.805306      -130.7590
   8   2.0000      -1.856809       -50.5263
   9   2.0000      -1.852745       -50.4157
  10   2.0000      -1.852462       -50.4081
  11   2.0000      -1.839707       -50.0610
  12   2.0000      -1.839678       -50.0602
  13   2.0000      -0.784374       -21.3439
  14   2.0000      -0.718081       -19.5400
  15   2.0000      -0.648757       -17.6536
  16   2.0000      -0.593947       -16.1621
  17   2.0000      -0.550796       -14.9879
  18   2.0000      -0.450536       -12.2597
  19   2.0000      -0.424646       -11.5552
  20   2.0000      -0.409930       -11.1548
  21   2.0000      -0.384763       -10.4699
  22   2.0000      -0.357065        -9.7162
  23   2.0000      -0.323124        -8.7926
  24   2.0000      -0.319309        -8.6888
  25   2.0000      -0.308935        -8.4066
  26   2.0000      -0.300292        -8.1714
  27   2.0000      -0.232115        -6.3162
  28   2.0000      -0.229533        -6.2459
  29   0.0000      -0.055043        -1.4978
  30   0.0000       0.090038         2.4501
  31   0.0000       0.098033         2.6676
  32   0.0000       0.116701         3.1756
  33   0.0000       0.124095         3.3768

MULLIKEN ATOMIC CHARGES
-----------------------
   0 C :   -0.462699
   1 C :   -0.220658
   2 C :   -0.264162
   3 C :   -0.265986
   4 I :   -0.152185
   5 H :    0.139001
   6 H :    0.143340
   7 H :    0.149949
   8 H :    0.154534
   9 H :    0.134777
  10 H :    0.156503
  11 H :    0.142242
  12 H :    0.167122
  13 H :    0.178220
Sum of atomic charges:   -0.0000000

LOEWDIN ATOMIC CHARGES
----------------------
   0 C :   -0.422015
   1 C :   -0.321335
   2 C :   -0.324873
   3 C :   -0.407290
   4 I :    0.053230
   5 H :    0.148871
   6 H :    0.151210
   7 H :    0.152546
   8 H :    0.161229
   9 H :    0.151849
  10 H :    0.162927
  11 H :    0.163648
  12 H :    0.165091
  13 H :    0.164913

  Mayer bond orders larger than 0.100000
B(  0-C ,  1-C ) :   0.9104 B(  0-C ,  5-H ) :   0.9834 B(  0-C ,  6-H ) :   0.9807
B(  0-C ,  7-H ) :   0.9745 B(  1-C ,  2-C ) :   0.9329 B(  1-C ,  8-H ) :   0.9552
B(  1-C ,  9-H ) :   0.9689 B(  2-C ,  3-C ) :   0.9135 B(  2-C , 10-H ) :   0.9668
B(  2-C , 11-H ) :   0.9484 B(  3-C ,  4-I ) :   0.9486 B(  3-C , 12-H ) :   0.9608
B(  3-C , 13-H ) :   0.9517

Dispersion correction           -0.003537135
FINAL SINGLE POINT ENERGY      -455.529538163779

DIPOLE MOMENT
-------------

Method             : SCF
Type of density    : Electron Density
Multiplicity       :   1
Irrep              :   0
Energy             :  -455.5322587926998494 Eh
Relativity type    :
Basis              : AO
                                X                 Y                 Z
Electronic contribution:     93.833230456     -11.611466733      -1.312043612
Nuclear contribution   :    -94.565115495      12.060498494       1.372787413
                        -----------------------------------------
Total Dipole Moment    :     -0.731885038       0.449031761       0.060743800
                        -----------------------------------------
Magnitude (a.u.)       :      0.860799071
Magnitude (Debye)      :      2.187977358

Rotational constants in cm-1:             0.250549             0.032416             0.029940
Rotational constants in MHz :          7511.269139           971.800124           897.578004

                             ****ORCA TERMINATED NORMALLY****
TOTAL RUN TIME: 0 days 0 hours 0 minutes 15 seconds 425 msec
