                         Program Version 6.0.0  -   RELEASE  -
|  1> ! r2scan-3c def2/J RI DEFGRID2 scfconv6 printgap
|  2> %output
|  3>     printlevel normal
|  4> end
|  5> %cpcm
|  6>     smd true
|  7>     smdsolvent "water"
|  8> end
|  9> * xyz 0 1
| 10> C -3.8673897145 -0.6955924733 -0.1505559482
| 11> C -2.5082941913 -0.304009587 0.4156321861
| 12> C -1.9009331004 0.8711925939 -0.3456619563
| 13> C -0.577116152 1.3352180206 0.2218297803
| 14> I 1.0150565822 -0.1340085584 -0.0154809665
| 15> H -4.5648321978 0.1360372916 -0.0810189346
| 16> H -3.7767698232 -0.9818071836 -1.1958306812
| 17> H -4.2789061269 -1.5367169576 0.4008411891
| 18> H -1.8344234057 -1.1620792488 0.3575530565
| 19> H -2.6155162392 -0.0360484943 1.4695712283
| 20> H -1.7855312846 0.6049196271 -1.3987119183
| 21> H -2.5855257948 1.7229868972 -0.292794132
| 22> H -0.6416473888 1.5188798022 1.291045465
| 23> H -0.2151513057 2.2256677024 -0.2846091247
| 24> *
| 25>
| 26>                          ****END OF INPUT****

CARTESIAN COORDINATES (ANGSTROEM)
---------------------------------
  C     -3.867390   -0.695592   -0.150556
  C     -2.508294   -0.304010    0.415632
  C     -1.900933    0.871193   -0.345662
  C     -0.577116    1.335218    0.221830
  I      1.015057   -0.134009   -0.015481
  H     -4.564832    0.136037   -0.081019
  H     -3.776770   -0.981807   -1.195831
  H     -4.278906   -1.536717    0.400841
  H     -1.834423   -1.162079    0.357553
  H     -2.615516   -0.036048    1.469571
  H     -1.785531    0.604920   -1.398712
  H     -2.585526    1.722987   -0.292794
  H     -0.641647    1.518880    1.291045
  H     -0.215151    2.225668   -0.284609

 Total Charge           Charge          ....    0
 Multiplicity           Mult            ....    1
 Number of Electrons    NEL             ....   58
 Basis Dimension        Dim             ....  157

ORBITAL ENERGIES
----------------

  NO   OCC          E(Eh)            E(eV)
   0   2.0000     -10.071269      -274.0532
   1   2.0000     -10.028762      -272.8965
   2   2.0000     -10.018545      -272.6185
   3   2.0000     -10.008496      -272.3450
   4   2.0000      -6.800625      -185.0544
   5   2.0000      -4.817999      -131.1044
   6   2.0000      -4.803685      -130.7149
   7   2.0000      -4.803404      -130.7073
   8   2.0000      -1.853619       -50.4395
   9   2.0000      -1.849921       -50.3389
  10   2.0000      -1.849673       -50.3322
  11   2.0000      -1.838149       -50.0186
  12   2.0000      -1.838130       -50.0181
  13   2.0000      -0.769647       -20.9432
  14   2.0000      -0.705702       -19.2031
  15   2.0000      -0.641038       -17.4435
  16   2.0000      -0.581888       -15.8340
  17   2.0000      -0.536247       -14.5920
  18   2.0000      -0.435342       -11.8463
  19   2.0000      -0.408776       -11.1234
  20   2.0000      -0.395699       -10.7675
  21   2.0000      -0.370802       -10.0900
  22   2.0000      -0.342412        -9.3175
  23   2.0000      -0.310443        -8.4476
  24   2.0000      -0.306430        -8.3384
  25   2.0000      -0.294335        -8.0093
  26   2.0000      -0.287091        -7.8122
  27   2.0000      -0.232630        -6.3302
  28   2.0000      -0.229723        -6.2511
  29   0.0000      -0.045064        -1.2263
  30   0.0000       0.105829         2.8798
  31   0.0000       0.111587         3.0364
  32   0.0000       0.127728         3.4757
  33   0.0000       0.135324         3.6824

MULLIKEN ATOMIC CHARGES
-----------------------
   0 C :   -0.505543
   1 C :   -0.231541
   2 C :   -0.270977
   3 C :   -0.250471
   4 I :   -0.220484
   5 H :    0.153117
   6 H :    0.153150
   7 H :    0.157313
   8 H :    0.148346
   9 H :    0.149482
  10 H :    0.163648
  11 H :    0.163797
  12 H :    0.190287
  13 H :    0.199875
Sum of atomic charges:   -0.0000000

LOEWDIN ATOMIC CHARGES
----------------------
   0 C :   -0.430889
   1 C :   -0.322967
   2 C :   -0.322764
   3 C :   -0.393254
   4 I :    0.013738
   5 H :    0.152651
   6 H :    0.152942
   7 H :    0.153354
   8 H :    0.157081
   9 H :    0.155791
  10 H :    0.164286
  11 H :    0.172774
  12 H :    0.173756
  13 H :    0.173502

  Mayer bond orders larger than 0.100000
B(  0-C ,  1-C ) :   0.9016 B(  0-C ,  5-H ) :   0.9811 B(  0-C ,  6-H ) :   0.9790
B(  0-C ,  7-H ) :   0.9726 B(  1-C ,  2-C ) :   0.9229 B(  1-C ,  8-H ) :   0.9590
B(  1-C ,  9-H ) :   0.9689 B(  2-C ,  3-C ) :   0.9116 B(  2-C , 10-H ) :   0.9686
B(  2-C , 11-H ) :   0.9430 B(  3-C ,  4-I ) :   0.8947 B(  3-C , 12-H ) :   0.9562
B(  3-C , 13-H ) :   0.9454

Dispersion correction           -0.003537135
FINAL SINGLE POINT ENERGY      -455.531517042223

DIPOLE MOMENT
-------------

Method             : SCF
Type of density    : Electron Density
Multiplicity       :   1
Irrep              :   0
Energy             :  -455.5342376711432166 Eh
Relativity type    :
Basis              : AO
                                X                 Y                 Z
Electronic contribution:     93.627535784     -11.372979133      -1.281077443
Nuclear contribution   :    -94.565115495      12.060498494       1.372787413
                        -----------------------------------------
Total Dipole Moment    :     -0.937579710       0.687519361       0.091709970
                        -----------------------------------------
Magnitude (a.u.)       :      1.166254390
Magnitude (Debye)      :      2.964383077

Rotational constants in cm-1:             0.250549             0.032416             0.029940
Rotational constants in MHz :          7511.269139           971.800124           897.578004

                             ****ORCA TERMINATED NORMALLY****
TOTAL RUN TIME: 0 days 0 hours 0 minutes 16 seconds 628 msec
