                         Program Version 6.0.0  -   RELEASE  -
|  1> ! pbe def2-sv(p) def2/J RI DEFGRID1 loosescf d4 GCP(DFT/SV(P)) printgap
|  2> %output
|  3>     printlevel normal
|  4> end
|  5> * xyz 0 1
|  6> C -3.2188497765 -1.0490445097 0.022992486
|  7> C -2.715221409 0.3357551997 0.4129736951
|  8> C -1.2015940887 0.3891319899 0.6194212228
|  9> C -0.4198487754 0.1525135668 -0.6821883777
| 10> C 1.0460312288 0.3455223235 -0.408745368
| 11> O 1.6645056677 1.3703353217 -0.6108035471
| 12> O 1.5897568439 -0.7453737377 0.1180936037
| 13> C 2.9703448148 -0.7056776744 0.4893001513
| 14> H -2.8988415448 -1.7891235983 0.7525675081
| 15> H -4.3051047196 -1.0535448517 -0.016390341
| 16> H -2.844844722 -1.3409654174 -0.9542658363
| 17> H -3.0005203404 1.0582881201 -0.3537704556
| 18> H -3.1940037621 0.6368584024 1.3467743973
| 19> H -0.9050257636 -0.364005283 1.3519377482
| 20> H -0.9302344945 1.371373379 1.0136542521
| 21> H -0.7322781916 0.8715911543 -1.4387781053
| 22> H -0.5811257098 -0.8647779586 -1.0335544816
| 23> H 3.3246299869 -1.7311892486 0.4421881451
| 24> H 3.061826345 -0.313186287 1.5022516087
| 25> H 3.522775582 -0.0645819562 -0.198658233
| 26> *
| 27>
| 28>                          ****END OF INPUT****

CARTESIAN COORDINATES (ANGSTROEM)
---------------------------------
  C     -3.218850   -1.049045    0.022992
  C     -2.715221    0.335755    0.412974
  C     -1.201594    0.389132    0.619421
  C     -0.419849    0.152514   -0.682188
  C      1.046031    0.345522   -0.408745
  O      1.664506    1.370335   -0.610804
  O      1.589757   -0.745374    0.118094
  C      2.970345   -0.705678    0.489300
  H     -2.898842   -1.789124    0.752568
  H     -4.305105   -1.053545   -0.016390
  H     -2.844845   -1.340965   -0.954266
  H     -3.000520    1.058288   -0.353770
  H     -3.194004    0.636858    1.346774
  H     -0.905026   -0.364005    1.351938
  H     -0.930234    1.371373    1.013654
  H     -0.732278    0.871591   -1.438778
  H     -0.581126   -0.864778   -1.033554
  H      3.324630   -1.731189    0.442188
  H      3.061826   -0.313186    1.502252
  H      3.522776   -0.064582   -0.198658

 Total Charge           Charge          ....    0
 Multiplicity           Mult            ....    1
 Number of Electrons    NEL             ....   64
 Basis Dimension        Dim             ....  136

ORBITAL ENERGIES
----------------

  NO   OCC          E(Eh)            E(eV)
   0   2.0000     -18.797342      -511.5017
   1   2.0000     -18.729917      -509.6669
   2   2.0000     -10.001242      -272.1476
   3   2.0000      -9.938973      -270.4532
   4   2.0000      -9.894470      -269.2422
   5   2.0000      -9.893886      -269.2263
   6   2.0000      -9.889092      -269.0959
   7   2.0000      -9.877832      -268.7895
   8   2.0000      -1.002813       -27.2879
   9   2.0000      -0.905836       -24.6491
  10   2.0000      -0.733971       -19.9724
  11   2.0000      -0.685456       -18.6522
  12   2.0000      -0.643433       -17.5087
  13   2.0000      -0.586665       -15.9640
  14   2.0000      -0.517247       -14.0750
  15   2.0000      -0.505730       -13.7616
  16   2.0000      -0.450897       -12.2695
  17   2.0000      -0.434490       -11.8231
  18   2.0000      -0.424735       -11.5576
  19   2.0000      -0.407532       -11.0895
  20   2.0000      -0.387738       -10.5509
  21   2.0000      -0.379291       -10.3210
  22   2.0000      -0.362565        -9.8659
  23   2.0000      -0.356486        -9.7005
  24   2.0000      -0.336667        -9.1612
  25   2.0000      -0.322979        -8.7887
  26   2.0000      -0.303432        -8.2568
  27   2.0000      -0.294408        -8.0112
  28   2.0000      -0.291752        -7.9390
  29   2.0000      -0.285535        -7.7698
  30   2.0000      -0.254638        -6.9291
  31   2.0000      -0.214051        -5.8246
  32   0.0000      -0.016061        -0.4370
  33   0.0000       0.037160         1.0112
  34   0.0000       0.057008         1.5513
  35   0.0000       0.066744         1.8162
  36   0.0000       0.070360         1.9146

MULLIKEN ATOMIC CHARGES
-----------------------
   0 C :   -0.296747
   1 C :   -0.144320
   2 C :   -0.217545
   3 C :   -0.122267
   4 C :    0.103497
   5 O :   -0.209536
   6 O :   -0.246121
   7 C :   -0.117864
   8 H :    0.100354
   9 H :    0.106025
  10 H :    0.109981
  11 H :    0.086526
  12 H :    0.089198
  13 H :    0.093535
  14 H :    0.099356
  15 H :    0.096215
  16 H :    0.102627
  17 H :    0.121093
  18 H :    0.118265
  19 H :    0.127728
Sum of atomic charges:   -0.0000000

LOEWDIN ATOMIC CHARGES
----------------------
   0 C :   -0.343518
   1 C :   -0.233059
   2 C :   -0.219094
   3 C :   -0.242355
   4 C :    0.035566
   5 O :   -0.172565
   6 O :   -0.076686
   7 C :   -0.205843
   8 H :    0.118240
   9 H :    0.121380
  10 H :    0.117064
  11 H :    0.116229
  12 H :    0.118594
  13 H :    0.117768
  14 H :    0.121969
  15 H :    0.133696
  16 H :    0.131359
  17 H :    0.120298
  18 H :    0.118580
  19 H :    0.122375

  Mayer bond orders larger than 0.100000
B(  0-C ,  1-C ) :   1.1519 B(  0-C ,  8-H ) :   0.9547 B(  0-C ,  9-H ) :   0.9515
B(  0-C , 10-H ) :   0.9515 B(  1-C ,  2-C ) :   1.1252 B(  1-C , 11-H ) :   0.9240
B(  1-C , 12-H ) :   0.9255 B(  2-C ,  3-C ) :   1.1259 B(  2-C , 13-H ) :   0.9210
B(  2-C , 14-H ) :   0.9221 B(  3-C ,  4-C ) :   1.0258 B(  3-C , 15-H ) :   0.9032
B(  3-C , 16-H ) :   0.8909 B(  4-C ,  5-O ) :   2.0685 B(  4-C ,  6-O ) :   1.2023
B(  6-O ,  7-C ) :   0.9391 B(  7-C , 17-H ) :   0.9607 B(  7-C , 18-H ) :   0.9587
B(  7-C , 19-H ) :   0.9387

Dispersion correction           -0.014932989
FINAL SINGLE POINT ENERGY      -385.451372344185

DIPOLE MOMENT
-------------

Method             : SCF
Type of density    : Electron Density
Multiplicity       :   1
Irrep              :   0
Energy             :  -385.5262795094358239 Eh
Relativity type    :
Basis              : AO
                                X                 Y                 Z
Electronic contribution:      8.677168749       2.683018735      -1.933649503
Nuclear contribution   :     -8.848143015      -3.352431497       2.257387341
                        -----------------------------------------
Total Dipole Moment    :     -0.170974266      -0.669412762       0.323737838
                        -----------------------------------------
Magnitude (a.u.)       :      0.762988750
Magnitude (Debye)      :      1.939363279

Rotational constants in cm-1:             0.151814             0.030272             0.027597
Rotational constants in MHz :          4551.273055           907.523538           827.324618

                             ****ORCA TERMINATED NORMALLY****
TOTAL RUN TIME: 0 days 0 hours 0 minutes 9 seconds 898 msec
