                         Program Version 6.0.0  -   RELEASE  -
|  1> ! r2scan-3c def2/J RI DEFGRID2 scfconv6 printgap
|  2> %output
|  3>     printlevel normal
|  4> end
|  5> * xyz 0 1
|  6> C -3.4809121181 0.3899858193 -0.0791989901
|  7> C -2.6004086872 -0.7134165597 0.4958245409
|  8> C -1.1811026023 -0.7105922819 -0.0721303412
|  9> C -0.3804764468 0.5323423877 0.3467493626
| 10> C 1.0156742529 0.4162125706 -0.1985536876
| 11> O 1.385411846 0.8465774976 -1.2714836155
| 12> O 1.8088141377 -0.2623361528 0.6234406659
| 13> C 3.1549485465 -0.4986533105 0.2032545089
| 14> H -3.1232609487 1.3722314245 0.2167230424
| 15> H -3.4923270582 0.3394472922 -1.165516224
| 16> H -4.5009379901 0.2798261926 0.2800348442
| 17> H -2.5540679506 -0.6148229419 1.5816782969
| 18> H -3.0526981514 -1.6806090034 0.2683698497
| 19> H -1.2221313654 -0.7552687252 -1.1626774485
| 20> H -0.6537894618 -1.5983454667 0.2834839103
| 21> H -0.3356445693 0.5894790682 1.4335146388
| 22> H -0.8377086741 1.4303453776 -0.0648065318
| 23> H 3.7079137437 0.44117247 0.1862576092
| 24> H 3.1633376556 -0.9335501008 -0.7969426598
| 25> H 3.574814623 -1.183259236 0.9334298812
| 26> *
| 27>
| 28>                          ****END OF INPUT****

CARTESIAN COORDINATES (ANGSTROEM)
---------------------------------
  C     -3.480912    0.389986   -0.079199
  C     -2.600409   -0.713417    0.495825
  C     -1.181103   -0.710592   -0.072130
  C     -0.380476    0.532342    0.346749
  C      1.015674    0.416213   -0.198554
  O      1.385412    0.846577   -1.271484
  O      1.808814   -0.262336    0.623441
  C      3.154949   -0.498653    0.203255
  H     -3.123261    1.372231    0.216723
  H     -3.492327    0.339447   -1.165516
  H     -4.500938    0.279826    0.280035
  H     -2.554068   -0.614823    1.581678
  H     -3.052698   -1.680609    0.268370
  H     -1.222131   -0.755269   -1.162677
  H     -0.653789   -1.598345    0.283484
  H     -0.335645    0.589479    1.433515
  H     -0.837709    1.430345   -0.064807
  H      3.707914    0.441172    0.186258
  H      3.163338   -0.933550   -0.796943
  H      3.574815   -1.183259    0.933430

 Total Charge           Charge          ....    0
 Multiplicity           Mult            ....    1
 Number of Electrons    NEL             ....   64
 Basis Dimension        Dim             ....  222

ORBITAL ENERGIES
----------------

  NO   OCC          E(Eh)            E(eV)
   0   2.0000     -18.998808      -516.9838
   1   2.0000     -18.927330      -515.0388
   2   2.0000     -10.150865      -276.2191
   3   2.0000     -10.086538      -274.4687
   4   2.0000     -10.041182      -273.2344
   5   2.0000     -10.037445      -273.1328
   6   2.0000     -10.031778      -272.9785
   7   2.0000     -10.020283      -272.6657
   8   2.0000      -1.072535       -29.1852
   9   2.0000      -0.974413       -26.5151
  10   2.0000      -0.781086       -21.2544
  11   2.0000      -0.728154       -19.8141
  12   2.0000      -0.683801       -18.6072
  13   2.0000      -0.625516       -17.0212
  14   2.0000      -0.550636       -14.9836
  15   2.0000      -0.533145       -14.5076
  16   2.0000      -0.471509       -12.8304
  17   2.0000      -0.453656       -12.3446
  18   2.0000      -0.449643       -12.2354
  19   2.0000      -0.425468       -11.5776
  20   2.0000      -0.415027       -11.2935
  21   2.0000      -0.397371       -10.8130
  22   2.0000      -0.375715       -10.2237
  23   2.0000      -0.369855       -10.0643
  24   2.0000      -0.350786        -9.5454
  25   2.0000      -0.336293        -9.1510
  26   2.0000      -0.324336        -8.8256
  27   2.0000      -0.306410        -8.3378
  28   2.0000      -0.305316        -8.3081
  29   2.0000      -0.299300        -8.1444
  30   2.0000      -0.272601        -7.4178
  31   2.0000      -0.233200        -6.3457
  32   0.0000      -0.014662        -0.3990
  33   0.0000       0.063943         1.7400
  34   0.0000       0.092886         2.5276
  35   0.0000       0.097839         2.6623
  36   0.0000       0.114292         3.1100

MULLIKEN ATOMIC CHARGES
-----------------------
   0 C :   -0.489461
   1 C :   -0.213159
   2 C :   -0.259535
   3 C :   -0.347707
   4 C :    0.392615
   5 O :   -0.419686
   6 O :   -0.191815
   7 C :   -0.293905
   8 H :    0.146583
   9 H :    0.148996
  10 H :    0.148653
  11 H :    0.133750
  12 H :    0.145530
  13 H :    0.155359
  14 H :    0.148188
  15 H :    0.157704
  16 H :    0.164616
  17 H :    0.157940
  18 H :    0.165497
  19 H :    0.149838
Sum of atomic charges:    0.0000000

LOEWDIN ATOMIC CHARGES
----------------------
   0 C :   -0.424450
   1 C :   -0.314111
   2 C :   -0.281941
   3 C :   -0.228144
   4 C :    0.351210
   5 O :   -0.423130
   6 O :   -0.605485
   7 C :   -0.044689
   8 H :    0.148971
   9 H :    0.152316
  10 H :    0.152120
  11 H :    0.152336
  12 H :    0.154577
  13 H :    0.163002
  14 H :    0.162625
  15 H :    0.176964
  16 H :    0.177963
  17 H :    0.174988
  18 H :    0.179109
  19 H :    0.175769

  Mayer bond orders larger than 0.100000
B(  0-C ,  1-C ) :   0.8958 B(  0-C ,  8-H ) :   0.9817 B(  0-C ,  9-H ) :   0.9810
B(  0-C , 10-H ) :   0.9693 B(  1-C ,  2-C ) :   0.8955 B(  1-C , 11-H ) :   0.9830
B(  1-C , 12-H ) :   0.9674 B(  2-C ,  3-C ) :   0.9140 B(  2-C , 13-H ) :   0.9686
B(  2-C , 14-H ) :   0.9610 B(  3-C ,  4-C ) :   0.9787 B(  3-C , 15-H ) :   0.9815
B(  3-C , 16-H ) :   0.9627 B(  4-C ,  5-O ) :   1.8292 B(  4-C ,  6-O ) :   1.0379
B(  6-O ,  7-C ) :   0.8515 B(  7-C , 17-H ) :   0.9624 B(  7-C , 18-H ) :   0.9631
B(  7-C , 19-H ) :   0.9691

Dispersion correction           -0.005054677
FINAL SINGLE POINT ENERGY      -386.229786161222

DIPOLE MOMENT
-------------

Method             : SCF
Type of density    : Electron Density
Multiplicity       :   1
Irrep              :   0
Energy             :  -386.2366766506698923 Eh
Relativity type    :
Basis              : AO
                                X                 Y                 Z
Electronic contribution:      8.611748808       1.672687343      -1.183892385
Nuclear contribution   :     -8.702447338      -2.161648128       1.860672191
                        -----------------------------------------
Total Dipole Moment    :     -0.090698531      -0.488960784       0.676779806
                        -----------------------------------------
Magnitude (a.u.)       :      0.839845091
Magnitude (Debye)      :      2.134716573

Rotational constants in cm-1:             0.178501             0.028960             0.026738
Rotational constants in MHz :          5351.318375           868.189329           801.587043

                             ****ORCA TERMINATED NORMALLY****
TOTAL RUN TIME: 0 days 0 hours 0 minutes 28 seconds 161 msec
