                         Program Version 6.0.0  -   RELEASE  -
|  1> ! r2scan-3c def2/J RI DEFGRID2 scfconv6 printgap
|  2> %output
|  3>     printlevel normal
|  4> end
|  5> %cpcm
|  6>     smd true
|  7>     smdsolvent "water"
|  8> end
|  9> * xyz 0 1
| 10> C -3.4809121181 0.3899858193 -0.0791989901
| 11> C -2.6004086872 -0.7134165597 0.4958245409
| 12> C -1.1811026023 -0.7105922819 -0.0721303412
| 13> C -0.3804764468 0.5323423877 0.3467493626
| 14> C 1.0156742529 0.4162125706 -0.1985536876
| 15> O 1.385411846 0.8465774976 -1.2714836155
| 16> O 1.8088141377 -0.2623361528 0.6234406659
| 17> C 3.1549485465 -0.4986533105 0.2032545089
| 18> H -3.1232609487 1.3722314245 0.2167230424
| 19> H -3.4923270582 0.3394472922 -1.165516224
| 20> H -4.5009379901 0.2798261926 0.2800348442
| 21> H -2.5540679506 -0.6148229419 1.5816782969
| 22> H -3.0526981514 -1.6806090034 0.2683698497
| 23> H -1.2221313654 -0.7552687252 -1.1626774485
| 24> H -0.6537894618 -1.5983454667 0.2834839103
| 25> H -0.3356445693 0.5894790682 1.4335146388
| 26> H -0.8377086741 1.4303453776 -0.0648065318
| 27> H 3.7079137437 0.44117247 0.1862576092
| 28> H 3.1633376556 -0.9335501008 -0.7969426598
| 29> H 3.574814623 -1.183259236 0.9334298812
| 30> *
| 31>
| 32>                          ****END OF INPUT****

CARTESIAN COORDINATES (ANGSTROEM)
---------------------------------
  C     -3.480912    0.389986   -0.079199
  C     -2.600409   -0.713417    0.495825
  C     -1.181103   -0.710592   -0.072130
  C     -0.380476    0.532342    0.346749
  C      1.015674    0.416213   -0.198554
  O      1.385412    0.846577   -1.271484
  O      1.808814   -0.262336    0.623441
  C      3.154949   -0.498653    0.203255
  H     -3.123261    1.372231    0.216723
  H     -3.492327    0.339447   -1.165516
  H     -4.500938    0.279826    0.280035
  H     -2.554068   -0.614823    1.581678
  H     -3.052698   -1.680609    0.268370
  H     -1.222131   -0.755269   -1.162677
  H     -0.653789   -1.598345    0.283484
  H     -0.335645    0.589479    1.433515
  H     -0.837709    1.430345   -0.064807
  H      3.707914    0.441172    0.186258
  H      3.163338   -0.933550   -0.796943
  H      3.574815   -1.183259    0.933430

 Total Charge           Charge          ....    0
 Multiplicity           Mult            ....    1
 Number of Electrons    NEL             ....   64
 Basis Dimension        Dim             ....  222

ORBITAL ENERGIES
----------------

  NO   OCC          E(Eh)            E(eV)
   0   2.0000     -19.004255      -517.1321
   1   2.0000     -18.944007      -515.4927
   2   2.0000     -10.161787      -276.5163
   3   2.0000     -10.076426      -274.1935
   4   2.0000     -10.034984      -273.0658
   5   2.0000     -10.028431      -272.8875
   6   2.0000     -10.020049      -272.6594
   7   2.0000     -10.008368      -272.3415
   8   2.0000      -1.079798       -29.3828
   9   2.0000      -0.988712       -26.9042
  10   2.0000      -0.773475       -21.0473
  11   2.0000      -0.721998       -19.6466
  12   2.0000      -0.676532       -18.4094
  13   2.0000      -0.616916       -16.7871
  14   2.0000      -0.542420       -14.7600
  15   2.0000      -0.529963       -14.4210
  16   2.0000      -0.471226       -12.8227
  17   2.0000      -0.458687       -12.4815
  18   2.0000      -0.451056       -12.2739
  19   2.0000      -0.423078       -11.5125
  20   2.0000      -0.405626       -11.0376
  21   2.0000      -0.394578       -10.7370
  22   2.0000      -0.372087       -10.1250
  23   2.0000      -0.362461        -9.8631
  24   2.0000      -0.345162        -9.3923
  25   2.0000      -0.329400        -8.9634
  26   2.0000      -0.325340        -8.8530
  27   2.0000      -0.298851        -8.1322
  28   2.0000      -0.296157        -8.0588
  29   2.0000      -0.290045        -7.8925
  30   2.0000      -0.279406        -7.6030
  31   2.0000      -0.249509        -6.7895
  32   0.0000      -0.023179        -0.6307
  33   0.0000       0.069197         1.8829
  34   0.0000       0.101745         2.7686
  35   0.0000       0.108024         2.9395
  36   0.0000       0.124613         3.3909

MULLIKEN ATOMIC CHARGES
-----------------------
   0 C :   -0.529074
   1 C :   -0.227815
   2 C :   -0.255354
   3 C :   -0.374997
   4 C :    0.438474
   5 O :   -0.507323
   6 O :   -0.205290
   7 C :   -0.328046
   8 H :    0.159997
   9 H :    0.157340
  10 H :    0.158328
  11 H :    0.146190
  12 H :    0.155972
  13 H :    0.160359
  14 H :    0.157684
  15 H :    0.179104
  16 H :    0.180103
  17 H :    0.179067
  18 H :    0.177054
  19 H :    0.178225
Sum of atomic charges:   -0.0000000

LOEWDIN ATOMIC CHARGES
----------------------
   0 C :   -0.432572
   1 C :   -0.313534
   2 C :   -0.280627
   3 C :   -0.225974
   4 C :    0.360387
   5 O :   -0.486444
   6 O :   -0.606225
   7 C :   -0.042098
   8 H :    0.152665
   9 H :    0.153799
  10 H :    0.154123
  11 H :    0.156253
  12 H :    0.157713
  13 H :    0.164011
  14 H :    0.165691
  15 H :    0.186397
  16 H :    0.183371
  17 H :    0.181723
  18 H :    0.183123
  19 H :    0.188218

  Mayer bond orders larger than 0.100000
B(  0-C ,  1-C ) :   0.8882 B(  0-C ,  8-H ) :   0.9781 B(  0-C ,  9-H ) :   0.9794
B(  0-C , 10-H ) :   0.9672 B(  1-C ,  2-C ) :   0.8906 B(  1-C , 11-H ) :   0.9828
B(  1-C , 12-H ) :   0.9675 B(  2-C ,  3-C ) :   0.9036 B(  2-C , 13-H ) :   0.9671
B(  2-C , 14-H ) :   0.9580 B(  3-C ,  4-C ) :   0.9724 B(  3-C , 15-H ) :   0.9710
B(  3-C , 16-H ) :   0.9636 B(  4-C ,  5-O ) :   1.7601 B(  4-C ,  6-O ) :   1.0645
B(  6-O ,  7-C ) :   0.8317 B(  7-C , 17-H ) :   0.9562 B(  7-C , 18-H ) :   0.9584
B(  7-C , 19-H ) :   0.9591

Dispersion correction           -0.005054677
FINAL SINGLE POINT ENERGY      -386.234962095256

DIPOLE MOMENT
-------------

Method             : SCF
Type of density    : Electron Density
Multiplicity       :   1
Irrep              :   0
Energy             :  -386.2418525847037927 Eh
Relativity type    :
Basis              : AO
                                X                 Y                 Z
Electronic contribution:      8.582712276       1.503439897      -0.873042788
Nuclear contribution   :     -8.702447338      -2.161648128       1.860672191
                        -----------------------------------------
Total Dipole Moment    :     -0.119735062      -0.658208231       0.987629403
                        -----------------------------------------
Magnitude (a.u.)       :      1.192889936
Magnitude (Debye)      :      3.032085253

Rotational constants in cm-1:             0.178501             0.028960             0.026738
Rotational constants in MHz :          5351.318375           868.189329           801.587043

                             ****ORCA TERMINATED NORMALLY****
TOTAL RUN TIME: 0 days 0 hours 0 minutes 33 seconds 311 msec
