                         Program Version 6.0.0  -   RELEASE  -
|  1> ! pbe def2-sv(p) def2/J RI DEFGRID1 loosescf d4 GCP(DFT/SV(P)) printgap
|  2> %output
|  3>     printlevel normal
|  4> end
|  5> * xyz 0 1
|  6> C -2.6751279968 0.0665925147 1.2123169765
|  7> C -2.5226692569 0.0120435505 -0.3029906574
|  8> C -1.2349127189 -0.7074613495 -0.7127657737
|  9> C -0.0182151763 0.0917977225 -0.3209486737
| 10> O 0.1332551918 1.2762233694 -0.5358809893
| 11> O 0.8801970726 -0.6634651181 0.3002988567
| 12> C 2.1192720903 -0.0603865252 0.7092117994
| 13> C 3.1376695873 -0.0775524613 -0.420395998
| 14> H -3.6000967341 0.5690110216 1.4823807683
| 15> H -2.6900411315 -0.9366806598 1.6314830316
| 16> H -1.8459811392 0.613903166 1.6572783589
| 17> H -2.4977036054 1.0264121954 -0.7055852218
| 18> H -3.3741795027 -0.510888156 -0.7388595022
| 19> H -1.2098732149 -0.8192348239 -1.7984520177
| 20> H -1.1674070643 -1.6920808556 -0.2516076524
| 21> H 1.9181220942 0.9663025519 1.0303325842
| 22> H 2.4525095255 -0.6638193288 1.5540080769
| 23> H 2.7859826083 0.5347594482 -1.2478714645
| 24> H 4.0798090074 0.3233897045 -0.0613604086
| 25> H 3.2898526227 -1.0945162261 -0.7715778973
| 26> *
| 27>
| 28>                          ****END OF INPUT****

CARTESIAN COORDINATES (ANGSTROEM)
---------------------------------
  C     -2.675128    0.066593    1.212317
  C     -2.522669    0.012044   -0.302991
  C     -1.234913   -0.707461   -0.712766
  C     -0.018215    0.091798   -0.320949
  O      0.133255    1.276223   -0.535881
  O      0.880197   -0.663465    0.300299
  C      2.119272   -0.060387    0.709212
  C      3.137670   -0.077552   -0.420396
  H     -3.600097    0.569011    1.482381
  H     -2.690041   -0.936681    1.631483
  H     -1.845981    0.613903    1.657278
  H     -2.497704    1.026412   -0.705585
  H     -3.374180   -0.510888   -0.738860
  H     -1.209873   -0.819235   -1.798452
  H     -1.167407   -1.692081   -0.251608
  H      1.918122    0.966303    1.030333
  H      2.452510   -0.663819    1.554008
  H      2.785983    0.534759   -1.247871
  H      4.079809    0.323390   -0.061360
  H      3.289853   -1.094516   -0.771578

 Total Charge           Charge          ....    0
 Multiplicity           Mult            ....    1
 Number of Electrons    NEL             ....   64
 Basis Dimension        Dim             ....  136

ORBITAL ENERGIES
----------------

  NO   OCC          E(Eh)            E(eV)
   0   2.0000     -18.797694      -511.5113
   1   2.0000     -18.731597      -509.7127
   2   2.0000     -10.004883      -272.2467
   3   2.0000      -9.946182      -270.6494
   4   2.0000      -9.895948      -269.2824
   5   2.0000      -9.889520      -269.1075
   6   2.0000      -9.886832      -269.0344
   7   2.0000      -9.875872      -268.7361
   8   2.0000      -1.003891       -27.3173
   9   2.0000      -0.908840       -24.7308
  10   2.0000      -0.726578       -19.7712
  11   2.0000      -0.696303       -18.9474
  12   2.0000      -0.636479       -17.3195
  13   2.0000      -0.590467       -16.0674
  14   2.0000      -0.531274       -14.4567
  15   2.0000      -0.492404       -13.3990
  16   2.0000      -0.452639       -12.3169
  17   2.0000      -0.432956       -11.7813
  18   2.0000      -0.422817       -11.5054
  19   2.0000      -0.396883       -10.7997
  20   2.0000      -0.391373       -10.6498
  21   2.0000      -0.374249       -10.1838
  22   2.0000      -0.361592        -9.8394
  23   2.0000      -0.349785        -9.5181
  24   2.0000      -0.337945        -9.1960
  25   2.0000      -0.329216        -8.9584
  26   2.0000      -0.304273        -8.2797
  27   2.0000      -0.297529        -8.0962
  28   2.0000      -0.295970        -8.0537
  29   2.0000      -0.287468        -7.8224
  30   2.0000      -0.255789        -6.9604
  31   2.0000      -0.218383        -5.9425
  32   0.0000      -0.020429        -0.5559
  33   0.0000       0.041386         1.1262
  34   0.0000       0.055293         1.5046
  35   0.0000       0.076311         2.0765
  36   0.0000       0.081645         2.2217

MULLIKEN ATOMIC CHARGES
-----------------------
   0 C :   -0.289814
   1 C :   -0.195934
   2 C :   -0.127777
   3 C :    0.093044
   4 O :   -0.212679
   5 O :   -0.234505
   6 C :   -0.013905
   7 C :   -0.304321
   8 H :    0.107424
   9 H :    0.098348
  10 H :    0.116136
  11 H :    0.108255
  12 H :    0.089768
  13 H :    0.113780
  14 H :    0.093143
  15 H :    0.106926
  16 H :    0.101070
  17 H :    0.126397
  18 H :    0.111913
  19 H :    0.112729
Sum of atomic charges:   -0.0000000

LOEWDIN ATOMIC CHARGES
----------------------
   0 C :   -0.342267
   1 C :   -0.228469
   2 C :   -0.247753
   3 C :    0.037413
   4 O :   -0.174099
   5 O :   -0.066214
   6 C :   -0.113739
   7 C :   -0.356089
   8 H :    0.121484
   9 H :    0.116882
  10 H :    0.120729
  11 H :    0.125013
  12 H :    0.117655
  13 H :    0.142668
  14 H :    0.126947
  15 H :    0.118725
  16 H :    0.116702
  17 H :    0.130294
  18 H :    0.130038
  19 H :    0.124079

  Mayer bond orders larger than 0.100000
B(  0-C ,  1-C ) :   1.1545 B(  0-C ,  8-H ) :   0.9524 B(  0-C ,  9-H ) :   0.9537
B(  0-C , 10-H ) :   0.9501 B(  1-C ,  2-C ) :   1.1115 B(  1-C , 11-H ) :   0.9184
B(  1-C , 12-H ) :   0.9275 B(  2-C ,  3-C ) :   1.0184 B(  2-C , 13-H ) :   0.8914
B(  2-C , 14-H ) :   0.9108 B(  3-C ,  4-O ) :   2.0300 B(  3-C ,  5-O ) :   1.2207
B(  5-O ,  6-C ) :   0.9237 B(  6-C ,  7-C ) :   1.1725 B(  6-C , 15-H ) :   0.9138
B(  6-C , 16-H ) :   0.9373 B(  7-C , 17-H ) :   0.9464 B(  7-C , 18-H ) :   0.9446
B(  7-C , 19-H ) :   0.9492

Dispersion correction           -0.015223919
FINAL SINGLE POINT ENERGY      -385.458699101099

DIPOLE MOMENT
-------------

Method             : SCF
Type of density    : Electron Density
Multiplicity       :   1
Irrep              :   0
Energy             :  -385.5337052114444418 Eh
Relativity type    :
Basis              : AO
                                X                 Y                 Z
Electronic contribution:      1.955738004       0.990304097      -1.481284520
Nuclear contribution   :     -1.729030384      -1.570263107       1.666601700
                        -----------------------------------------
Total Dipole Moment    :      0.226707620      -0.579959010       0.185317180
                        -----------------------------------------
Magnitude (a.u.)       :      0.649685505
Magnitude (Debye)      :      1.651369317

Rotational constants in cm-1:             0.159320             0.033566             0.032655
Rotational constants in MHz :          4776.304758          1006.272149           978.958909

                             ****ORCA TERMINATED NORMALLY****
TOTAL RUN TIME: 0 days 0 hours 0 minutes 10 seconds 796 msec
