                         Program Version 6.0.0  -   RELEASE  -
|  1> ! pbe def2-sv(p) def2/J RI DEFGRID1 loosescf d4 GCP(DFT/SV(P)) printgap
|  2> %output
|  3>     printlevel normal
|  4> end
|  5> * xyz 0 1
|  6> C -3.7787405246 0.0972149106 0.625103489
|  7> C -2.6574025339 -0.5259747367 -0.1977429508
|  8> C -1.3043780779 0.0946250375 0.1414838679
|  9> C -0.1741087129 -0.5274018013 -0.6897770026
| 10> C 1.1233100563 0.1667790073 -0.3750343502
| 11> O 1.3988427675 1.3039449269 -0.6970537797
| 12> O 1.9328286147 -0.606547568 0.3383737798
| 13> C 3.195751998 -0.0721732158 0.7466662563
| 14> H -4.7338721311 -0.3536645674 0.3689474144
| 15> H -3.6009908923 -0.0522334728 1.6874528109
| 16> H -3.8406854542 1.1663273799 0.435734618
| 17> H -2.6190867196 -1.5997871664 -0.0062502495
| 18> H -2.8635170608 -0.3825588695 -1.2599232564
| 19> H -1.0924482653 -0.0509804224 1.2028802623
| 20> H -1.3315877341 1.1694177462 -0.050884286
| 21> H -0.3905968162 -0.3892410635 -1.7496404086
| 22> H -0.0734536086 -1.5880959091 -0.4648736577
| 23> H 3.0925497707 0.9867414294 0.9862120039
| 24> H 3.9180506681 -0.1905554967 -0.0612725094
| 25> H 3.4965685674 -0.6464475566 1.6177541608
| 26> *
| 27>
| 28>                          ****END OF INPUT****

CARTESIAN COORDINATES (ANGSTROEM)
---------------------------------
  C     -3.778741    0.097215    0.625103
  C     -2.657403   -0.525975   -0.197743
  C     -1.304378    0.094625    0.141484
  C     -0.174109   -0.527402   -0.689777
  C      1.123310    0.166779   -0.375034
  O      1.398843    1.303945   -0.697054
  O      1.932829   -0.606548    0.338374
  C      3.195752   -0.072173    0.746666
  H     -4.733872   -0.353665    0.368947
  H     -3.600991   -0.052233    1.687453
  H     -3.840685    1.166327    0.435735
  H     -2.619087   -1.599787   -0.006250
  H     -2.863517   -0.382559   -1.259923
  H     -1.092448   -0.050980    1.202880
  H     -1.331588    1.169418   -0.050884
  H     -0.390597   -0.389241   -1.749640
  H     -0.073454   -1.588096   -0.464874
  H      3.092550    0.986741    0.986212
  H      3.918051   -0.190555   -0.061273
  H      3.496569   -0.646448    1.617754

 Total Charge           Charge          ....    0
 Multiplicity           Mult            ....    1
 Number of Electrons    NEL             ....   64
 Basis Dimension        Dim             ....  136

ORBITAL ENERGIES
----------------

  NO   OCC          E(Eh)            E(eV)
   0   2.0000     -18.798745      -511.5399
   1   2.0000     -18.729304      -509.6503
   2   2.0000     -10.002883      -272.1923
   3   2.0000      -9.940338      -270.4903
   4   2.0000      -9.895901      -269.2812
   5   2.0000      -9.892204      -269.1805
   6   2.0000      -9.887896      -269.0633
   7   2.0000      -9.876734      -268.7596
   8   2.0000      -1.003832       -27.3157
   9   2.0000      -0.906606       -24.6700
  10   2.0000      -0.732021       -19.9193
  11   2.0000      -0.686916       -18.6919
  12   2.0000      -0.646680       -17.5971
  13   2.0000      -0.578114       -15.7313
  14   2.0000      -0.522670       -14.2226
  15   2.0000      -0.505277       -13.7493
  16   2.0000      -0.443583       -12.0705
  17   2.0000      -0.437001       -11.8914
  18   2.0000      -0.430652       -11.7186
  19   2.0000      -0.408853       -11.1255
  20   2.0000      -0.390310       -10.6209
  21   2.0000      -0.370960       -10.0943
  22   2.0000      -0.369729       -10.0608
  23   2.0000      -0.352816        -9.6006
  24   2.0000      -0.332696        -9.0531
  25   2.0000      -0.315508        -8.5854
  26   2.0000      -0.305353        -8.3091
  27   2.0000      -0.298203        -8.1145
  28   2.0000      -0.290482        -7.9044
  29   2.0000      -0.286338        -7.7917
  30   2.0000      -0.255202        -6.9444
  31   2.0000      -0.215582        -5.8663
  32   0.0000      -0.017770        -0.4836
  33   0.0000       0.038799         1.0558
  34   0.0000       0.055298         1.5047
  35   0.0000       0.067084         1.8254
  36   0.0000       0.070406         1.9158

MULLIKEN ATOMIC CHARGES
-----------------------
   0 C :   -0.257397
   1 C :   -0.165256
   2 C :   -0.236349
   3 C :   -0.097866
   4 C :    0.105633
   5 O :   -0.214150
   6 O :   -0.239239
   7 C :   -0.116739
   8 H :    0.103316
   9 H :    0.097849
  10 H :    0.100493
  11 H :    0.083919
  12 H :    0.085655
  13 H :    0.089702
  14 H :    0.103315
  15 H :    0.101326
  16 H :    0.090582
  17 H :    0.125538
  18 H :    0.118803
  19 H :    0.120866
Sum of atomic charges:   -0.0000000

LOEWDIN ATOMIC CHARGES
----------------------
   0 C :   -0.338898
   1 C :   -0.233413
   2 C :   -0.217911
   3 C :   -0.241809
   4 C :    0.035319
   5 O :   -0.174004
   6 O :   -0.074495
   7 C :   -0.205948
   8 H :    0.119572
   9 H :    0.117341
  10 H :    0.118471
  11 H :    0.114566
  12 H :    0.115715
  13 H :    0.117253
  14 H :    0.122653
  15 H :    0.136972
  16 H :    0.127235
  17 H :    0.121576
  18 H :    0.119558
  19 H :    0.120246

  Mayer bond orders larger than 0.100000
B(  0-C ,  1-C ) :   1.1593 B(  0-C ,  8-H ) :   0.9526 B(  0-C ,  9-H ) :   0.9544
B(  0-C , 10-H ) :   0.9542 B(  1-C ,  2-C ) :   1.1345 B(  1-C , 11-H ) :   0.9240
B(  1-C , 12-H ) :   0.9251 B(  2-C ,  3-C ) :   1.1285 B(  2-C , 13-H ) :   0.9245
B(  2-C , 14-H ) :   0.9197 B(  3-C ,  4-C ) :   1.0173 B(  3-C , 15-H ) :   0.8937
B(  3-C , 16-H ) :   0.9026 B(  4-C ,  5-O ) :   2.0552 B(  4-C ,  6-O ) :   1.2193
B(  6-O ,  7-C ) :   0.9381 B(  7-C , 17-H ) :   0.9402 B(  7-C , 18-H ) :   0.9586
B(  7-C , 19-H ) :   0.9602

Dispersion correction           -0.014465472
FINAL SINGLE POINT ENERGY      -385.452444928625

DIPOLE MOMENT
-------------

Method             : SCF
Type of density    : Electron Density
Multiplicity       :   1
Irrep              :   0
Energy             :  -385.5274859584897627 Eh
Relativity type    :
Basis              : AO
                                X                 Y                 Z
Electronic contribution:      9.406392764       1.202811924      -2.173603775
Nuclear contribution   :     -9.368918278      -1.801331919       2.533488958
                        -----------------------------------------
Total Dipole Moment    :      0.037474486      -0.598519994       0.359885183
                        -----------------------------------------
Magnitude (a.u.)       :      0.699391068
Magnitude (Debye)      :      1.777710817

Rotational constants in cm-1:             0.184391             0.026019             0.025156
Rotational constants in MHz :          5527.912420           780.032457           754.151554

                             ****ORCA TERMINATED NORMALLY****
TOTAL RUN TIME: 0 days 0 hours 0 minutes 10 seconds 489 msec
