                         Program Version 6.0.0  -   RELEASE  -
|  1> ! r2scan-3c def2/J RI DEFGRID2 scfconv6 printgap
|  2> %output
|  3>     printlevel normal
|  4> end
|  5> * xyz 0 1
|  6> C -3.3442929267 -1.0368278461 0.3229430207
|  7> C -1.8312644454 -0.9202783396 0.1807346889
|  8> C -1.4115247984 0.5323073662 -0.0278760006
|  9> C 0.0725919386 0.7414866158 -0.1820467083
| 10> O 0.6030832782 1.835019754 -0.1410675338
| 11> O 0.7361382761 -0.3853028804 -0.3921594658
| 12> C 2.1618290367 -0.3219613593 -0.5613129501
| 13> C 2.8758991078 -0.4341244104 0.7768727387
| 14> H -3.6947986909 -0.4531169533 1.1706203327
| 15> H -3.8413360511 -0.6734638666 -0.5731027901
| 16> H -3.6294902261 -2.0736500736 0.4779111127
| 17> H -1.4930724194 -1.5194229794 -0.6652572213
| 18> H -1.3468022424 -1.3102776274 1.0770590685
| 19> H -1.7432207418 1.1588095383 0.8028757642
| 20> H -1.8788924485 0.9334084257 -0.9314168265
| 21> H 2.4001068504 -1.1659015145 -1.2095477924
| 22> H 2.4140749012 0.6213743613 -1.0551908475
| 23> H 3.9482719533 -0.4485226686 0.6119920366
| 24> H 2.6265890903 0.4185498936 1.4045465884
| 25> H 2.5781355519 -1.3474859987 1.2845221073
| 26> *
| 27>
| 28>                          ****END OF INPUT****

CARTESIAN COORDINATES (ANGSTROEM)
---------------------------------
  C     -3.344293   -1.036828    0.322943
  C     -1.831264   -0.920278    0.180735
  C     -1.411525    0.532307   -0.027876
  C      0.072592    0.741487   -0.182047
  O      0.603083    1.835020   -0.141068
  O      0.736138   -0.385303   -0.392159
  C      2.161829   -0.321961   -0.561313
  C      2.875899   -0.434124    0.776873
  H     -3.694799   -0.453117    1.170620
  H     -3.841336   -0.673464   -0.573103
  H     -3.629490   -2.073650    0.477911
  H     -1.493072   -1.519423   -0.665257
  H     -1.346802   -1.310278    1.077059
  H     -1.743221    1.158810    0.802876
  H     -1.878892    0.933408   -0.931417
  H      2.400107   -1.165902   -1.209548
  H      2.414075    0.621374   -1.055191
  H      3.948272   -0.448523    0.611992
  H      2.626589    0.418550    1.404547
  H      2.578136   -1.347486    1.284522

 Total Charge           Charge          ....    0
 Multiplicity           Mult            ....    1
 Number of Electrons    NEL             ....   64
 Basis Dimension        Dim             ....  222

ORBITAL ENERGIES
----------------

  NO   OCC          E(Eh)            E(eV)
   0   2.0000     -18.997421      -516.9461
   1   2.0000     -18.924071      -514.9502
   2   2.0000     -10.151474      -276.2356
   3   2.0000     -10.091391      -274.6007
   4   2.0000     -10.042144      -273.2606
   5   2.0000     -10.031984      -272.9842
   6   2.0000     -10.029362      -272.9128
   7   2.0000     -10.021334      -272.6944
   8   2.0000      -1.071852       -29.1666
   9   2.0000      -0.972427       -26.4611
  10   2.0000      -0.774859       -21.0850
  11   2.0000      -0.738423       -20.0935
  12   2.0000      -0.680268       -18.5110
  13   2.0000      -0.621894       -16.9226
  14   2.0000      -0.569906       -15.5079
  15   2.0000      -0.524047       -14.2600
  16   2.0000      -0.473991       -12.8979
  17   2.0000      -0.459718       -12.5096
  18   2.0000      -0.435877       -11.8608
  19   2.0000      -0.421798       -11.4777
  20   2.0000      -0.410965       -11.1829
  21   2.0000      -0.382584       -10.4106
  22   2.0000      -0.379656       -10.3310
  23   2.0000      -0.366961        -9.9855
  24   2.0000      -0.345670        -9.4062
  25   2.0000      -0.339244        -9.2313
  26   2.0000      -0.329208        -8.9582
  27   2.0000      -0.319053        -8.6819
  28   2.0000      -0.308455        -8.3935
  29   2.0000      -0.301956        -8.2166
  30   2.0000      -0.268794        -7.3143
  31   2.0000      -0.231338        -6.2950
  32   0.0000      -0.012205        -0.3321
  33   0.0000       0.072491         1.9726
  34   0.0000       0.091269         2.4836
  35   0.0000       0.105936         2.8827
  36   0.0000       0.120917         3.2903

MULLIKEN ATOMIC CHARGES
-----------------------
   0 C :   -0.463994
   1 C :   -0.238327
   2 C :   -0.336072
   3 C :    0.365804
   4 O :   -0.422643
   5 O :   -0.147714
   6 C :   -0.144404
   7 C :   -0.466222
   8 H :    0.141824
   9 H :    0.141774
  10 H :    0.148814
  11 H :    0.151282
  12 H :    0.144148
  13 H :    0.167493
  14 H :    0.169660
  15 H :    0.147632
  16 H :    0.170978
  17 H :    0.147054
  18 H :    0.171079
  19 H :    0.151833
Sum of atomic charges:    0.0000000

LOEWDIN ATOMIC CHARGES
----------------------
   0 C :   -0.422328
   1 C :   -0.297687
   2 C :   -0.228405
   3 C :    0.363480
   4 O :   -0.439908
   5 O :   -0.604005
   6 C :    0.029705
   7 C :   -0.389708
   8 H :    0.150487
   9 H :    0.150414
  10 H :    0.151999
  11 H :    0.163541
  12 H :    0.158170
  13 H :    0.182204
  14 H :    0.184108
  15 H :    0.177291
  16 H :    0.189905
  17 H :    0.159354
  18 H :    0.164600
  19 H :    0.156783

  Mayer bond orders larger than 0.100000
B(  0-C ,  1-C ) :   0.8889 B(  0-C ,  8-H ) :   0.9807 B(  0-C ,  9-H ) :   0.9846
B(  0-C , 10-H ) :   0.9748 B(  1-C ,  2-C ) :   0.9296 B(  1-C , 11-H ) :   0.9647
B(  1-C , 12-H ) :   0.9652 B(  2-C ,  3-C ) :   1.0155 B(  2-C , 13-H ) :   0.9635
B(  2-C , 14-H ) :   0.9380 B(  3-C ,  4-O ) :   1.8567 B(  3-C ,  5-O ) :   1.0732
B(  5-O ,  6-C ) :   0.8026 B(  6-C ,  7-C ) :   0.9365 B(  6-C , 15-H ) :   0.9620
B(  6-C , 16-H ) :   0.9666 B(  7-C , 17-H ) :   0.9649 B(  7-C , 18-H ) :   0.9722
B(  7-C , 19-H ) :   0.9747

Dispersion correction           -0.005002186
FINAL SINGLE POINT ENERGY      -386.234780153612

DIPOLE MOMENT
-------------

Method             : SCF
Type of density    : Electron Density
Multiplicity       :   1
Irrep              :   0
Energy             :  -386.2415356532976034 Eh
Relativity type    :
Basis              : AO
                                X                 Y                 Z
Electronic contribution:      3.409200124       4.609483346      -2.258522768
Nuclear contribution   :     -3.414239525      -5.475878258       2.239013284
                        -----------------------------------------
Total Dipole Moment    :     -0.005039401      -0.866394912      -0.019509484
                        -----------------------------------------
Magnitude (a.u.)       :      0.866629194
Magnitude (Debye)      :      2.202796351

Rotational constants in cm-1:             0.131262             0.034069             0.029442
Rotational constants in MHz :          3935.130443          1021.350065           882.644707

                             ****ORCA TERMINATED NORMALLY****
TOTAL RUN TIME: 0 days 0 hours 0 minutes 29 seconds 581 msec
