                         Program Version 6.0.0  -   RELEASE  -
|  1> ! r2scan-3c def2/J RI DEFGRID2 scfconv6 printgap
|  2> %output
|  3>     printlevel normal
|  4> end
|  5> %cpcm
|  6>     smd true
|  7>     smdsolvent "water"
|  8> end
|  9> * xyz 0 1
| 10> C -3.3442929267 -1.0368278461 0.3229430207
| 11> C -1.8312644454 -0.9202783396 0.1807346889
| 12> C -1.4115247984 0.5323073662 -0.0278760006
| 13> C 0.0725919386 0.7414866158 -0.1820467083
| 14> O 0.6030832782 1.835019754 -0.1410675338
| 15> O 0.7361382761 -0.3853028804 -0.3921594658
| 16> C 2.1618290367 -0.3219613593 -0.5613129501
| 17> C 2.8758991078 -0.4341244104 0.7768727387
| 18> H -3.6947986909 -0.4531169533 1.1706203327
| 19> H -3.8413360511 -0.6734638666 -0.5731027901
| 20> H -3.6294902261 -2.0736500736 0.4779111127
| 21> H -1.4930724194 -1.5194229794 -0.6652572213
| 22> H -1.3468022424 -1.3102776274 1.0770590685
| 23> H -1.7432207418 1.1588095383 0.8028757642
| 24> H -1.8788924485 0.9334084257 -0.9314168265
| 25> H 2.4001068504 -1.1659015145 -1.2095477924
| 26> H 2.4140749012 0.6213743613 -1.0551908475
| 27> H 3.9482719533 -0.4485226686 0.6119920366
| 28> H 2.6265890903 0.4185498936 1.4045465884
| 29> H 2.5781355519 -1.3474859987 1.2845221073
| 30> *
| 31>
| 32>                          ****END OF INPUT****

CARTESIAN COORDINATES (ANGSTROEM)
---------------------------------
  C     -3.344293   -1.036828    0.322943
  C     -1.831264   -0.920278    0.180735
  C     -1.411525    0.532307   -0.027876
  C      0.072592    0.741487   -0.182047
  O      0.603083    1.835020   -0.141068
  O      0.736138   -0.385303   -0.392159
  C      2.161829   -0.321961   -0.561313
  C      2.875899   -0.434124    0.776873
  H     -3.694799   -0.453117    1.170620
  H     -3.841336   -0.673464   -0.573103
  H     -3.629490   -2.073650    0.477911
  H     -1.493072   -1.519423   -0.665257
  H     -1.346802   -1.310278    1.077059
  H     -1.743221    1.158810    0.802876
  H     -1.878892    0.933408   -0.931417
  H      2.400107   -1.165902   -1.209548
  H      2.414075    0.621374   -1.055191
  H      3.948272   -0.448523    0.611992
  H      2.626589    0.418550    1.404547
  H      2.578136   -1.347486    1.284522

 Total Charge           Charge          ....    0
 Multiplicity           Mult            ....    1
 Number of Electrons    NEL             ....   64
 Basis Dimension        Dim             ....  222

ORBITAL ENERGIES
----------------

  NO   OCC          E(Eh)            E(eV)
   0   2.0000     -19.002879      -517.0946
   1   2.0000     -18.940489      -515.3969
   2   2.0000     -10.162373      -276.5322
   3   2.0000     -10.083429      -274.3841
   4   2.0000     -10.035778      -273.0874
   5   2.0000     -10.023507      -272.7535
   6   2.0000     -10.018500      -272.6172
   7   2.0000     -10.010114      -272.3891
   8   2.0000      -1.078950       -29.3597
   9   2.0000      -0.986787       -26.8518
  10   2.0000      -0.768921       -20.9234
  11   2.0000      -0.730684       -19.8829
  12   2.0000      -0.673456       -18.3257
  13   2.0000      -0.616257       -16.7692
  14   2.0000      -0.562731       -15.3127
  15   2.0000      -0.521072       -14.1791
  16   2.0000      -0.471936       -12.8420
  17   2.0000      -0.460363       -12.5271
  18   2.0000      -0.445269       -12.1164
  19   2.0000      -0.417676       -11.3656
  20   2.0000      -0.408274       -11.1097
  21   2.0000      -0.377187       -10.2638
  22   2.0000      -0.371488       -10.1087
  23   2.0000      -0.359521        -9.7831
  24   2.0000      -0.338083        -9.1997
  25   2.0000      -0.336919        -9.1680
  26   2.0000      -0.327546        -8.9130
  27   2.0000      -0.311455        -8.4751
  28   2.0000      -0.301600        -8.2070
  29   2.0000      -0.295979        -8.0540
  30   2.0000      -0.276347        -7.5198
  31   2.0000      -0.247474        -6.7341
  32   0.0000      -0.020212        -0.5500
  33   0.0000       0.077347         2.1047
  34   0.0000       0.098363         2.6766
  35   0.0000       0.114991         3.1291
  36   0.0000       0.130116         3.5406

MULLIKEN ATOMIC CHARGES
-----------------------
   0 C :   -0.512483
   1 C :   -0.245834
   2 C :   -0.347566
   3 C :    0.408217
   4 O :   -0.512171
   5 O :   -0.165578
   6 C :   -0.148768
   7 C :   -0.491714
   8 H :    0.155628
   9 H :    0.156162
  10 H :    0.159185
  11 H :    0.156171
  12 H :    0.156814
  13 H :    0.184752
  14 H :    0.196494
  15 H :    0.174049
  16 H :    0.172217
  17 H :    0.170298
  18 H :    0.168055
  19 H :    0.166072
Sum of atomic charges:   -0.0000000

LOEWDIN ATOMIC CHARGES
----------------------
   0 C :   -0.427963
   1 C :   -0.296435
   2 C :   -0.226741
   3 C :    0.374243
   4 O :   -0.503589
   5 O :   -0.604564
   6 C :    0.034397
   7 C :   -0.392588
   8 H :    0.154228
   9 H :    0.154290
  10 H :    0.154662
  11 H :    0.164139
  12 H :    0.160900
  13 H :    0.189246
  14 H :    0.194805
  15 H :    0.188840
  16 H :    0.190263
  17 H :    0.167898
  18 H :    0.162092
  19 H :    0.161879

  Mayer bond orders larger than 0.100000
B(  0-C ,  1-C ) :   0.8832 B(  0-C ,  8-H ) :   0.9786 B(  0-C ,  9-H ) :   0.9824
B(  0-C , 10-H ) :   0.9715 B(  1-C ,  2-C ) :   0.9180 B(  1-C , 11-H ) :   0.9646
B(  1-C , 12-H ) :   0.9665 B(  2-C ,  3-C ) :   1.0208 B(  2-C , 13-H ) :   0.9569
B(  2-C , 14-H ) :   0.9228 B(  3-C ,  4-O ) :   1.7833 B(  3-C ,  5-O ) :   1.1025
B(  5-O ,  6-C ) :   0.7853 B(  6-C ,  7-C ) :   0.9356 B(  6-C , 15-H ) :   0.9525
B(  6-C , 16-H ) :   0.9628 B(  7-C , 17-H ) :   0.9599 B(  7-C , 18-H ) :   0.9697
B(  7-C , 19-H ) :   0.9706

Dispersion correction           -0.005002186
FINAL SINGLE POINT ENERGY      -386.240155694505

DIPOLE MOMENT
-------------

Method             : SCF
Type of density    : Electron Density
Multiplicity       :   1
Irrep              :   0
Energy             :  -386.2469111941907158 Eh
Relativity type    :
Basis              : AO
                                X                 Y                 Z
Electronic contribution:      3.354343613       4.277007013      -2.293390527
Nuclear contribution   :     -3.414239525      -5.475878258       2.239013284
                        -----------------------------------------
Total Dipole Moment    :     -0.059895912      -1.198871245      -0.054377243
                        -----------------------------------------
Magnitude (a.u.)       :      1.201597548
Magnitude (Debye)      :      3.054218244

Rotational constants in cm-1:             0.131262             0.034069             0.029442
Rotational constants in MHz :          3935.130443          1021.350065           882.644707

                             ****ORCA TERMINATED NORMALLY****
TOTAL RUN TIME: 0 days 0 hours 0 minutes 35 seconds 746 msec
