                         Program Version 6.0.0  -   RELEASE  -
|  1> ! pbe def2-sv(p) def2/J RI DEFGRID1 loosescf d4 GCP(DFT/SV(P)) printgap
|  2> %output
|  3>     printlevel normal
|  4> end
|  5> * xyz 0 1
|  6> C -2.8123602741 -1.1230924191 -0.1092486752
|  7> C -2.5220692472 0.3717773945 -0.0475620423
|  8> C -1.2200800897 0.663329236 0.6985393233
|  9> C -0.0095032342 0.2045222741 -0.074119327
| 10> O 0.0942585597 0.2110440232 -1.2823975197
| 11> O 0.9540193302 -0.2063980652 0.7442038817
| 12> C 2.2068921103 -0.6215841707 0.1747259466
| 13> C 3.1323681503 0.5660781724 -0.0407627453
| 14> H -2.0162368278 -1.6400151049 -0.6414969811
| 15> H -2.8874526501 -1.5407966384 0.8919918058
| 16> H -3.7471592788 -1.3063813509 -0.6320347462
| 17> H -3.3417369289 0.8833451401 0.4574671786
| 18> H -2.4398043156 0.7681106236 -1.061220026
| 19> H -1.204758733 0.1871571017 1.6786743946
| 20> H -1.1083143632 1.7410051012 0.8392765616
| 21> H 2.62042445 -1.3208258758 0.9019334393
| 22> H 2.0075160844 -1.1313969669 -0.772817965
| 23> H 3.2803240655 1.0995977875 0.8941989253
| 24> H 4.0903067313 0.2135123446 -0.4086666375
| 25> H 2.7017345304 1.2456463444 -0.7728757139
| 26> *
| 27>
| 28>                          ****END OF INPUT****

CARTESIAN COORDINATES (ANGSTROEM)
---------------------------------
  C     -2.812360   -1.123092   -0.109249
  C     -2.522069    0.371777   -0.047562
  C     -1.220080    0.663329    0.698539
  C     -0.009503    0.204522   -0.074119
  O      0.094259    0.211044   -1.282398
  O      0.954019   -0.206398    0.744204
  C      2.206892   -0.621584    0.174726
  C      3.132368    0.566078   -0.040763
  H     -2.016237   -1.640015   -0.641497
  H     -2.887453   -1.540797    0.891992
  H     -3.747159   -1.306381   -0.632035
  H     -3.341737    0.883345    0.457467
  H     -2.439804    0.768111   -1.061220
  H     -1.204759    0.187157    1.678674
  H     -1.108314    1.741005    0.839277
  H      2.620424   -1.320826    0.901933
  H      2.007516   -1.131397   -0.772818
  H      3.280324    1.099598    0.894199
  H      4.090307    0.213512   -0.408667
  H      2.701735    1.245646   -0.772876

 Total Charge           Charge          ....    0
 Multiplicity           Mult            ....    1
 Number of Electrons    NEL             ....   64
 Basis Dimension        Dim             ....  136

ORBITAL ENERGIES
----------------

  NO   OCC          E(Eh)            E(eV)
   0   2.0000     -18.797053      -511.4938
   1   2.0000     -18.732921      -509.7487
   2   2.0000     -10.005721      -272.2695
   3   2.0000      -9.946225      -270.6505
   4   2.0000      -9.896814      -269.3060
   5   2.0000      -9.887384      -269.0494
   6   2.0000      -9.886996      -269.0388
   7   2.0000      -9.873734      -268.6780
   8   2.0000      -1.003733       -27.3130
   9   2.0000      -0.909762       -24.7559
  10   2.0000      -0.725653       -19.7460
  11   2.0000      -0.696270       -18.9465
  12   2.0000      -0.636545       -17.3213
  13   2.0000      -0.589581       -16.0433
  14   2.0000      -0.530388       -14.4326
  15   2.0000      -0.491580       -13.3766
  16   2.0000      -0.452479       -12.3126
  17   2.0000      -0.434643       -11.8272
  18   2.0000      -0.422260       -11.4903
  19   2.0000      -0.397224       -10.8090
  20   2.0000      -0.390570       -10.6279
  21   2.0000      -0.372909       -10.1474
  22   2.0000      -0.363451        -9.8900
  23   2.0000      -0.349290        -9.5047
  24   2.0000      -0.336492        -9.1564
  25   2.0000      -0.328978        -8.9520
  26   2.0000      -0.302489        -8.2311
  27   2.0000      -0.297313        -8.0903
  28   2.0000      -0.294754        -8.0207
  29   2.0000      -0.287698        -7.8286
  30   2.0000      -0.256091        -6.9686
  31   2.0000      -0.219530        -5.9737
  32   0.0000      -0.020127        -0.5477
  33   0.0000       0.040178         1.0933
  34   0.0000       0.055213         1.5024
  35   0.0000       0.078847         2.1455
  36   0.0000       0.083448         2.2707

MULLIKEN ATOMIC CHARGES
-----------------------
   0 C :   -0.291834
   1 C :   -0.179678
   2 C :   -0.145226
   3 C :    0.098478
   4 O :   -0.210583
   5 O :   -0.236066
   6 C :   -0.013394
   7 C :   -0.304064
   8 H :    0.115708
   9 H :    0.096202
  10 H :    0.106240
  11 H :    0.086242
  12 H :    0.105682
  13 H :    0.097136
  14 H :    0.116241
  15 H :    0.101088
  16 H :    0.107314
  17 H :    0.112601
  18 H :    0.112027
  19 H :    0.125885
Sum of atomic charges:   -0.0000000

LOEWDIN ATOMIC CHARGES
----------------------
   0 C :   -0.342598
   1 C :   -0.230715
   2 C :   -0.249706
   3 C :    0.038646
   4 O :   -0.171549
   5 O :   -0.068335
   6 C :   -0.113491
   7 C :   -0.356297
   8 H :    0.121313
   9 H :    0.115513
  10 H :    0.121139
  11 H :    0.117275
  12 H :    0.125237
  13 H :    0.129567
  14 H :    0.144285
  15 H :    0.116692
  16 H :    0.118856
  17 H :    0.124016
  18 H :    0.130062
  19 H :    0.130090

  Mayer bond orders larger than 0.100000
B(  0-C ,  1-C ) :   1.1547 B(  0-C ,  8-H ) :   0.9517 B(  0-C ,  9-H ) :   0.9540
B(  0-C , 10-H ) :   0.9530 B(  1-C ,  2-C ) :   1.1142 B(  1-C , 11-H ) :   0.9256
B(  1-C , 12-H ) :   0.9164 B(  2-C ,  3-C ) :   1.0181 B(  2-C , 13-H ) :   0.9100
B(  2-C , 14-H ) :   0.8890 B(  3-C ,  4-O ) :   2.0290 B(  3-C ,  5-O ) :   1.2190
B(  5-O ,  6-C ) :   0.9238 B(  6-C ,  7-C ) :   1.1729 B(  6-C , 15-H ) :   0.9373
B(  6-C , 16-H ) :   0.9138 B(  7-C , 17-H ) :   0.9493 B(  7-C , 18-H ) :   0.9446
B(  7-C , 19-H ) :   0.9464

Dispersion correction           -0.015146282
FINAL SINGLE POINT ENERGY      -385.459193662791

DIPOLE MOMENT
-------------

Method             : SCF
Type of density    : Electron Density
Multiplicity       :   1
Irrep              :   0
Energy             :  -385.5342980901385772 Eh
Relativity type    :
Basis              : AO
                                X                 Y                 Z
Electronic contribution:      2.185698992       0.727091708      -0.691263960
Nuclear contribution   :     -1.903154373      -0.751441563       1.281464252
                        -----------------------------------------
Total Dipole Moment    :      0.282544619      -0.024349855       0.590200292
                        -----------------------------------------
Magnitude (a.u.)       :      0.654798260
Magnitude (Debye)      :      1.664364908

Rotational constants in cm-1:             0.170214             0.032256             0.032050
Rotational constants in MHz :          5102.877848           967.001027           960.832754

                             ****ORCA TERMINATED NORMALLY****
TOTAL RUN TIME: 0 days 0 hours 0 minutes 10 seconds 500 msec
