                         Program Version 6.0.0  -   RELEASE  -
|  1> ! pbe def2-sv(p) def2/J RI DEFGRID1 loosescf d4 GCP(DFT/SV(P)) printgap
|  2> %output
|  3>     printlevel normal
|  4> end
|  5> * xyz 0 1
|  6> C -2.6273307883 -0.9697151696 -0.6190304138
|  7> C -2.0884529985 -0.5308998338 0.7370991525
|  8> C -1.3426565384 0.8071565599 0.6473457865
|  9> C -0.1023063413 0.676315298 -0.1987560121
| 10> O 0.0755752068 1.2330517575 -1.2638128983
| 11> O 0.7861981066 -0.1297435632 0.3629129713
| 12> C 2.0318511835 -0.3679334211 -0.3125469676
| 13> C 3.097657568 -0.6538592674 0.7292988307
| 14> H -3.328832947 -0.2346287175 -1.0064803627
| 15> H -1.8182035482 -1.073734981 -1.3398913312
| 16> H -3.1385701131 -1.9248799538 -0.5337039867
| 17> H -1.4078128538 -1.2880359514 1.1290054634
| 18> H -2.9163783973 -0.419343352 1.4378796001
| 19> H -1.0368071821 1.117958823 1.6465345108
| 20> H -1.9798361311 1.5712618872 0.2026252796
| 21> H 1.8915552803 -1.2227935142 -0.9816167301
| 22> H 2.2741106745 0.5127187768 -0.9162869035
| 23> H 3.2211037833 0.2032554225 1.3851867057
| 24> H 2.8097872237 -1.5137101476 1.3267744313
| 25> H 4.0392131594 -0.8611279448 0.231693993
| 26> *
| 27>
| 28>                          ****END OF INPUT****

CARTESIAN COORDINATES (ANGSTROEM)
---------------------------------
  C     -2.627331   -0.969715   -0.619030
  C     -2.088453   -0.530900    0.737099
  C     -1.342657    0.807157    0.647346
  C     -0.102306    0.676315   -0.198756
  O      0.075575    1.233052   -1.263813
  O      0.786198   -0.129744    0.362913
  C      2.031851   -0.367933   -0.312547
  C      3.097658   -0.653859    0.729299
  H     -3.328833   -0.234629   -1.006480
  H     -1.818204   -1.073735   -1.339891
  H     -3.138570   -1.924880   -0.533704
  H     -1.407813   -1.288036    1.129005
  H     -2.916378   -0.419343    1.437880
  H     -1.036807    1.117959    1.646535
  H     -1.979836    1.571262    0.202625
  H      1.891555   -1.222794   -0.981617
  H      2.274111    0.512719   -0.916287
  H      3.221104    0.203255    1.385187
  H      2.809787   -1.513710    1.326774
  H      4.039213   -0.861128    0.231694

 Total Charge           Charge          ....    0
 Multiplicity           Mult            ....    1
 Number of Electrons    NEL             ....   64
 Basis Dimension        Dim             ....  136

ORBITAL ENERGIES
----------------

  NO   OCC          E(Eh)            E(eV)
   0   2.0000     -18.797444      -511.5044
   1   2.0000     -18.728897      -509.6392
   2   2.0000     -10.003612      -272.2121
   3   2.0000      -9.946557      -270.6596
   4   2.0000      -9.895769      -269.2776
   5   2.0000      -9.893853      -269.2254
   6   2.0000      -9.889799      -269.1151
   7   2.0000      -9.877025      -268.7675
   8   2.0000      -1.004082       -27.3225
   9   2.0000      -0.905978       -24.6529
  10   2.0000      -0.730640       -19.8817
  11   2.0000      -0.698366       -19.0035
  12   2.0000      -0.636395       -17.3172
  13   2.0000      -0.582949       -15.8629
  14   2.0000      -0.535095       -14.5607
  15   2.0000      -0.506119       -13.7722
  16   2.0000      -0.454401       -12.3649
  17   2.0000      -0.428855       -11.6697
  18   2.0000      -0.418252       -11.3812
  19   2.0000      -0.402507       -10.9528
  20   2.0000      -0.391323       -10.6484
  21   2.0000      -0.367205        -9.9922
  22   2.0000      -0.360469        -9.8089
  23   2.0000      -0.354104        -9.6357
  24   2.0000      -0.342022        -9.3069
  25   2.0000      -0.324705        -8.8357
  26   2.0000      -0.311554        -8.4778
  27   2.0000      -0.299589        -8.1522
  28   2.0000      -0.297463        -8.0944
  29   2.0000      -0.292070        -7.9476
  30   2.0000      -0.254530        -6.9261
  31   2.0000      -0.212207        -5.7745
  32   0.0000      -0.018841        -0.5127
  33   0.0000       0.036987         1.0065
  34   0.0000       0.051805         1.4097
  35   0.0000       0.070990         1.9317
  36   0.0000       0.081009         2.2044

MULLIKEN ATOMIC CHARGES
-----------------------
   0 C :   -0.286787
   1 C :   -0.216435
   2 C :   -0.100308
   3 C :    0.081628
   4 O :   -0.205079
   5 O :   -0.245496
   6 C :   -0.026788
   7 C :   -0.280029
   8 H :    0.103172
   9 H :    0.119137
  10 H :    0.105725
  11 H :    0.101405
  12 H :    0.094534
  13 H :    0.104082
  14 H :    0.096643
  15 H :    0.101960
  16 H :    0.113773
  17 H :    0.114024
  18 H :    0.113559
  19 H :    0.111281
Sum of atomic charges:   -0.0000000

LOEWDIN ATOMIC CHARGES
----------------------
   0 C :   -0.342513
   1 C :   -0.228952
   2 C :   -0.242297
   3 C :    0.032359
   4 O :   -0.169161
   5 O :   -0.070520
   6 C :   -0.110895
   7 C :   -0.350854
   8 H :    0.120573
   9 H :    0.121137
  10 H :    0.120465
  11 H :    0.119009
  12 H :    0.118610
  13 H :    0.135982
  14 H :    0.131691
  15 H :    0.114905
  16 H :    0.119068
  17 H :    0.126092
  18 H :    0.125405
  19 H :    0.129897

  Mayer bond orders larger than 0.100000
B(  0-C ,  1-C ) :   1.1523 B(  0-C ,  8-H ) :   0.9535 B(  0-C ,  9-H ) :   0.9480
B(  0-C , 10-H ) :   0.9514 B(  1-C ,  2-C ) :   1.1102 B(  1-C , 11-H ) :   0.9248
B(  1-C , 12-H ) :   0.9275 B(  2-C ,  3-C ) :   1.0297 B(  2-C , 13-H ) :   0.8950
B(  2-C , 14-H ) :   0.9105 B(  3-C ,  4-O ) :   2.0647 B(  3-C ,  5-O ) :   1.1893
B(  5-O ,  6-C ) :   0.9133 B(  6-C ,  7-C ) :   1.1573 B(  6-C , 15-H ) :   0.9354
B(  6-C , 16-H ) :   0.9165 B(  7-C , 17-H ) :   0.9524 B(  7-C , 18-H ) :   0.9488
B(  7-C , 19-H ) :   0.9448

Dispersion correction           -0.015010464
FINAL SINGLE POINT ENERGY      -385.456908506927

DIPOLE MOMENT
-------------

Method             : SCF
Type of density    : Electron Density
Multiplicity       :   1
Irrep              :   0
Energy             :  -385.5318819103307533 Eh
Relativity type    :
Basis              : AO
                                X                 Y                 Z
Electronic contribution:      1.512151669       4.275624494      -1.812170554
Nuclear contribution   :     -1.291902751      -4.799305591       2.408725664
                        -----------------------------------------
Total Dipole Moment    :      0.220248919      -0.523681097       0.596555110
                        -----------------------------------------
Magnitude (a.u.)       :      0.823789704
Magnitude (Debye)      :      2.093907023

Rotational constants in cm-1:             0.120024             0.036222             0.033163
Rotational constants in MHz :          3598.230261          1085.914486           994.192548

                             ****ORCA TERMINATED NORMALLY****
TOTAL RUN TIME: 0 days 0 hours 0 minutes 10 seconds 733 msec
