                         Program Version 6.0.0  -   RELEASE  -
|  1> ! r2scan-3c def2/J RI DEFGRID2 scfconv6 printgap
|  2> %output
|  3>     printlevel normal
|  4> end
|  5> * xyz 0 1
|  6> C -3.3003233586 -0.868159885 0.2743664557
|  7> C -1.8981749435 -0.600125552 -0.2589633022
|  8> C -1.5042850572 0.8662149425 -0.0933898648
|  9> C -0.1157379181 1.1529996859 -0.6726108527
| 10> C 0.9508995536 0.4335621643 0.1107214022
| 11> O 1.0997353381 0.4992862376 1.3128792549
| 12> O 1.7346315284 -0.2927018797 -0.6795674172
| 13> C 2.8041914634 -1.0229825463 -0.0728504529
| 14> H -4.0306210889 -0.2645247663 -0.2589869085
| 15> H -3.5618915479 -1.9158094727 0.1506837762
| 16> H -3.357338287 -0.6215853188 1.3320310362
| 17> H -1.1795053389 -1.2268724539 0.275682287
| 18> H -1.8525531444 -0.870190165 -1.3161553594
| 19> H -1.5011686073 1.123978624 0.9676655629
| 20> H -2.2358724412 1.4981508613 -0.5981301871
| 21> H 0.0914780619 2.2220966402 -0.6012389671
| 22> H -0.0516246003 0.8419818958 -1.7146079664
| 23> H 3.4553580598 -1.324808972 -0.8870930659
| 24> H 2.406320199 -1.8938229578 0.4491021358
| 25> H 3.3311518578 -0.389219061 0.6413194613
| 26> *
| 27>
| 28>                          ****END OF INPUT****

CARTESIAN COORDINATES (ANGSTROEM)
---------------------------------
  C     -3.300323   -0.868160    0.274366
  C     -1.898175   -0.600126   -0.258963
  C     -1.504285    0.866215   -0.093390
  C     -0.115738    1.153000   -0.672611
  C      0.950900    0.433562    0.110721
  O      1.099735    0.499286    1.312879
  O      1.734632   -0.292702   -0.679567
  C      2.804191   -1.022983   -0.072850
  H     -4.030621   -0.264525   -0.258987
  H     -3.561892   -1.915809    0.150684
  H     -3.357338   -0.621585    1.332031
  H     -1.179505   -1.226872    0.275682
  H     -1.852553   -0.870190   -1.316155
  H     -1.501169    1.123979    0.967666
  H     -2.235872    1.498151   -0.598130
  H      0.091478    2.222097   -0.601239
  H     -0.051625    0.841982   -1.714608
  H      3.455358   -1.324809   -0.887093
  H      2.406320   -1.893823    0.449102
  H      3.331152   -0.389219    0.641319

 Total Charge           Charge          ....    0
 Multiplicity           Mult            ....    1
 Number of Electrons    NEL             ....   64
 Basis Dimension        Dim             ....  222

ORBITAL ENERGIES
----------------

  NO   OCC          E(Eh)            E(eV)
   0   2.0000     -19.000184      -517.0213
   1   2.0000     -18.928849      -515.0802
   2   2.0000     -10.152127      -276.2534
   3   2.0000     -10.086703      -274.4732
   4   2.0000     -10.041521      -273.2437
   5   2.0000     -10.032093      -272.9871
   6   2.0000     -10.027164      -272.8530
   7   2.0000     -10.017036      -272.5774
   8   2.0000      -1.073372       -29.2079
   9   2.0000      -0.976307       -26.5667
  10   2.0000      -0.777850       -21.1664
  11   2.0000      -0.726774       -19.7765
  12   2.0000      -0.687047       -18.6955
  13   2.0000      -0.614971       -16.7342
  14   2.0000      -0.558018       -15.1844
  15   2.0000      -0.526589       -14.3292
  16   2.0000      -0.473805       -12.8929
  17   2.0000      -0.455899       -12.4056
  18   2.0000      -0.445518       -12.1232
  19   2.0000      -0.425919       -11.5898
  20   2.0000      -0.410079       -11.1588
  21   2.0000      -0.396668       -10.7939
  22   2.0000      -0.387733       -10.5508
  23   2.0000      -0.354624        -9.6498
  24   2.0000      -0.348620        -9.4864
  25   2.0000      -0.336213        -9.1488
  26   2.0000      -0.321399        -8.7457
  27   2.0000      -0.307485        -8.3671
  28   2.0000      -0.299575        -8.1518
  29   2.0000      -0.295378        -8.0376
  30   2.0000      -0.274610        -7.4725
  31   2.0000      -0.237228        -6.4553
  32   0.0000      -0.016213        -0.4412
  33   0.0000       0.065267         1.7760
  34   0.0000       0.090650         2.4667
  35   0.0000       0.107761         2.9323
  36   0.0000       0.113695         3.0938

MULLIKEN ATOMIC CHARGES
-----------------------
   0 C :   -0.475732
   1 C :   -0.251315
   2 C :   -0.259104
   3 C :   -0.289180
   4 C :    0.340147
   5 O :   -0.418769
   6 O :   -0.183299
   7 C :   -0.296706
   8 H :    0.140818
   9 H :    0.147137
  10 H :    0.146276
  11 H :    0.147148
  12 H :    0.139961
  13 H :    0.164149
  14 H :    0.143896
  15 H :    0.167669
  16 H :    0.161543
  17 H :    0.150196
  18 H :    0.155567
  19 H :    0.169598
Sum of atomic charges:   -0.0000000

LOEWDIN ATOMIC CHARGES
----------------------
   0 C :   -0.422053
   1 C :   -0.309188
   2 C :   -0.287565
   3 C :   -0.229597
   4 C :    0.348918
   5 O :   -0.429972
   6 O :   -0.603702
   7 C :   -0.045774
   8 H :    0.149715
   9 H :    0.150916
  10 H :    0.152149
  11 H :    0.157379
  12 H :    0.151400
  13 H :    0.169909
  14 H :    0.155836
  15 H :    0.182129
  16 H :    0.178027
  17 H :    0.176009
  18 H :    0.173869
  19 H :    0.181594

  Mayer bond orders larger than 0.100000
B(  0-C ,  1-C ) :   0.9034 B(  0-C ,  8-H ) :   0.9827 B(  0-C ,  9-H ) :   0.9742
B(  0-C , 10-H ) :   0.9831 B(  1-C ,  2-C ) :   0.9247 B(  1-C , 11-H ) :   0.9588
B(  1-C , 12-H ) :   0.9703 B(  2-C ,  3-C ) :   0.8935 B(  2-C , 13-H ) :   0.9706
B(  2-C , 14-H ) :   0.9707 B(  3-C ,  4-C ) :   0.9391 B(  3-C , 15-H ) :   0.9391
B(  3-C , 16-H ) :   1.0028 B(  4-C ,  5-O ) :   1.8247 B(  4-C ,  6-O ) :   1.0542
B(  6-O ,  7-C ) :   0.8514 B(  7-C , 17-H ) :   0.9694 B(  7-C , 18-H ) :   0.9608
B(  7-C , 19-H ) :   0.9644

Dispersion correction           -0.005118403
FINAL SINGLE POINT ENERGY      -386.231537061830

DIPOLE MOMENT
-------------

Method             : SCF
Type of density    : Electron Density
Multiplicity       :   1
Irrep              :   0
Energy             :  -386.2383668033207869 Eh
Relativity type    :
Basis              : AO
                                X                 Y                 Z
Electronic contribution:      7.984567219       2.403055149       0.762631393
Nuclear contribution   :     -7.919504517      -2.643153315      -1.453894198
                        -----------------------------------------
Total Dipole Moment    :      0.065062702      -0.240098166      -0.691262805
                        -----------------------------------------
Magnitude (a.u.)       :      0.734659479
Magnitude (Debye)      :      1.867355995

Rotational constants in cm-1:             0.127791             0.033176             0.031462
Rotational constants in MHz :          3831.074885           994.577550           943.219729

                             ****ORCA TERMINATED NORMALLY****
TOTAL RUN TIME: 0 days 0 hours 0 minutes 29 seconds 136 msec
