                         Program Version 6.0.0  -   RELEASE  -
|  1> ! r2scan-3c def2/J RI DEFGRID2 scfconv6 printgap
|  2> %output
|  3>     printlevel normal
|  4> end
|  5> %cpcm
|  6>     smd true
|  7>     smdsolvent "water"
|  8> end
|  9> * xyz 0 1
| 10> C -3.3003233586 -0.868159885 0.2743664557
| 11> C -1.8981749435 -0.600125552 -0.2589633022
| 12> C -1.5042850572 0.8662149425 -0.0933898648
| 13> C -0.1157379181 1.1529996859 -0.6726108527
| 14> C 0.9508995536 0.4335621643 0.1107214022
| 15> O 1.0997353381 0.4992862376 1.3128792549
| 16> O 1.7346315284 -0.2927018797 -0.6795674172
| 17> C 2.8041914634 -1.0229825463 -0.0728504529
| 18> H -4.0306210889 -0.2645247663 -0.2589869085
| 19> H -3.5618915479 -1.9158094727 0.1506837762
| 20> H -3.357338287 -0.6215853188 1.3320310362
| 21> H -1.1795053389 -1.2268724539 0.275682287
| 22> H -1.8525531444 -0.870190165 -1.3161553594
| 23> H -1.5011686073 1.123978624 0.9676655629
| 24> H -2.2358724412 1.4981508613 -0.5981301871
| 25> H 0.0914780619 2.2220966402 -0.6012389671
| 26> H -0.0516246003 0.8419818958 -1.7146079664
| 27> H 3.4553580598 -1.324808972 -0.8870930659
| 28> H 2.406320199 -1.8938229578 0.4491021358
| 29> H 3.3311518578 -0.389219061 0.6413194613
| 30> *
| 31>
| 32>                          ****END OF INPUT****

CARTESIAN COORDINATES (ANGSTROEM)
---------------------------------
  C     -3.300323   -0.868160    0.274366
  C     -1.898175   -0.600126   -0.258963
  C     -1.504285    0.866215   -0.093390
  C     -0.115738    1.153000   -0.672611
  C      0.950900    0.433562    0.110721
  O      1.099735    0.499286    1.312879
  O      1.734632   -0.292702   -0.679567
  C      2.804191   -1.022983   -0.072850
  H     -4.030621   -0.264525   -0.258987
  H     -3.561892   -1.915809    0.150684
  H     -3.357338   -0.621585    1.332031
  H     -1.179505   -1.226872    0.275682
  H     -1.852553   -0.870190   -1.316155
  H     -1.501169    1.123979    0.967666
  H     -2.235872    1.498151   -0.598130
  H      0.091478    2.222097   -0.601239
  H     -0.051625    0.841982   -1.714608
  H      3.455358   -1.324809   -0.887093
  H      2.406320   -1.893823    0.449102
  H      3.331152   -0.389219    0.641319

 Total Charge           Charge          ....    0
 Multiplicity           Mult            ....    1
 Number of Electrons    NEL             ....   64
 Basis Dimension        Dim             ....  222

ORBITAL ENERGIES
----------------

  NO   OCC          E(Eh)            E(eV)
   0   2.0000     -19.005311      -517.1608
   1   2.0000     -18.944398      -515.5033
   2   2.0000     -10.162415      -276.5334
   3   2.0000     -10.076181      -274.1868
   4   2.0000     -10.035659      -273.0842
   5   2.0000     -10.025514      -272.8081
   6   2.0000     -10.019135      -272.6345
   7   2.0000     -10.008779      -272.3527
   8   2.0000      -1.080153       -29.3925
   9   2.0000      -0.989571       -26.9276
  10   2.0000      -0.772506       -21.0210
  11   2.0000      -0.721997       -19.6465
  12   2.0000      -0.680799       -18.5255
  13   2.0000      -0.608583       -16.5604
  14   2.0000      -0.551569       -15.0090
  15   2.0000      -0.524732       -14.2787
  16   2.0000      -0.474204       -12.9038
  17   2.0000      -0.457876       -12.4594
  18   2.0000      -0.451288       -12.2802
  19   2.0000      -0.424580       -11.5534
  20   2.0000      -0.403284       -10.9739
  21   2.0000      -0.389991       -10.6122
  22   2.0000      -0.385656       -10.4942
  23   2.0000      -0.354552        -9.6479
  24   2.0000      -0.343136        -9.3372
  25   2.0000      -0.330246        -8.9864
  26   2.0000      -0.322380        -8.7724
  27   2.0000      -0.301526        -8.2049
  28   2.0000      -0.291897        -7.9429
  29   2.0000      -0.288650        -7.8546
  30   2.0000      -0.282124        -7.6770
  31   2.0000      -0.253445        -6.8966
  32   0.0000      -0.023812        -0.6479
  33   0.0000       0.069608         1.8941
  34   0.0000       0.097788         2.6610
  35   0.0000       0.116641         3.1740
  36   0.0000       0.124998         3.4014

MULLIKEN ATOMIC CHARGES
-----------------------
   0 C :   -0.518169
   1 C :   -0.256820
   2 C :   -0.273625
   3 C :   -0.306746
   4 C :    0.381743
   5 O :   -0.504053
   6 O :   -0.200636
   7 C :   -0.328740
   8 H :    0.154998
   9 H :    0.157887
  10 H :    0.154398
  11 H :    0.152556
  12 H :    0.154510
  13 H :    0.158749
  14 H :    0.163913
  15 H :    0.197163
  16 H :    0.177340
  17 H :    0.177814
  18 H :    0.180298
  19 H :    0.177421
Sum of atomic charges:   -0.0000000

LOEWDIN ATOMIC CHARGES
----------------------
   0 C :   -0.430286
   1 C :   -0.310861
   2 C :   -0.287526
   3 C :   -0.226831
   4 C :    0.358647
   5 O :   -0.490747
   6 O :   -0.605790
   7 C :   -0.042822
   8 H :    0.153535
   9 H :    0.153524
  10 H :    0.153280
  11 H :    0.157582
  12 H :    0.156197
  13 H :    0.166012
  14 H :    0.163451
  15 H :    0.192437
  16 H :    0.185485
  17 H :    0.188119
  18 H :    0.182114
  19 H :    0.184479

  Mayer bond orders larger than 0.100000
B(  0-C ,  1-C ) :   0.8932 B(  0-C ,  8-H ) :   0.9799 B(  0-C ,  9-H ) :   0.9712
B(  0-C , 10-H ) :   0.9816 B(  1-C ,  2-C ) :   0.9169 B(  1-C , 11-H ) :   0.9586
B(  1-C , 12-H ) :   0.9682 B(  2-C ,  3-C ) :   0.8759 B(  2-C , 13-H ) :   0.9779
B(  2-C , 14-H ) :   0.9648 B(  3-C ,  4-C ) :   0.9420 B(  3-C , 15-H ) :   0.9334
B(  3-C , 16-H ) :   0.9923 B(  4-C ,  5-O ) :   1.7577 B(  4-C ,  6-O ) :   1.0777
B(  6-O ,  7-C ) :   0.8330 B(  7-C , 17-H ) :   0.9595 B(  7-C , 18-H ) :   0.9541
B(  7-C , 19-H ) :   0.9597

Dispersion correction           -0.005118403
FINAL SINGLE POINT ENERGY      -386.236395566475

DIPOLE MOMENT
-------------

Method             : SCF
Type of density    : Electron Density
Multiplicity       :   1
Irrep              :   0
Energy             :  -386.2432253079660995 Eh
Relativity type    :
Basis              : AO
                                X                 Y                 Z
Electronic contribution:      7.997969281       2.349590715       0.407197460
Nuclear contribution   :     -7.919504517      -2.643153315      -1.453894198
                        -----------------------------------------
Total Dipole Moment    :      0.078464764      -0.293562600      -1.046696738
                        -----------------------------------------
Magnitude (a.u.)       :      1.089912740
Magnitude (Debye)      :      2.770338023

Rotational constants in cm-1:             0.127791             0.033176             0.031462
Rotational constants in MHz :          3831.074885           994.577550           943.219729

                             ****ORCA TERMINATED NORMALLY****
TOTAL RUN TIME: 0 days 0 hours 0 minutes 33 seconds 786 msec
