                         Program Version 6.0.0  -   RELEASE  -
|  1> ! pbe def2-sv(p) def2/J RI DEFGRID1 loosescf d4 GCP(DFT/SV(P)) printgap
|  2> %output
|  3>     printlevel normal
|  4> end
|  5> * xyz 0 1
|  6> C -3.6600397206 -0.7100673678 0.2477735054
|  7> C -2.4270184241 0.1829577422 0.203468074
|  8> C -1.1662427725 -0.6206071014 -0.1107782655
|  9> C 0.0439151416 0.2609905449 -0.2735999176
| 10> O 0.0225540198 1.426945385 -0.6104038235
| 11> O 1.1632479975 -0.4009775893 -0.0101580074
| 12> C 2.4159062941 0.2943722341 -0.1380353949
| 13> C 3.4582689826 -0.4469482499 0.6774161624
| 14> H -3.8142127475 -1.1959160149 -0.7123832378
| 15> H -3.5464333079 -1.4776915263 1.0091061624
| 16> H -4.5426672478 -0.1211391809 0.4810748132
| 17> H -2.300599602 0.687196644 1.1634114295
| 18> H -2.5485514941 0.9563575676 -0.5570706278
| 19> H -1.2982310102 -1.1560232228 -1.0547244074
| 20> H -0.9559741983 -1.3583629911 0.6635724574
| 21> H 2.6819834097 0.3203543302 -1.1995226722
| 22> H 2.2781268922 1.3235050592 0.2093784963
| 23> H 3.1724493445 -0.4625545861 1.7251596986
| 24> H 3.5464186115 -1.4695767149 0.3231120468
| 25> H 4.4157878939 0.0528580245 0.5751566077
| 26> *
| 27>
| 28>                          ****END OF INPUT****

CARTESIAN COORDINATES (ANGSTROEM)
---------------------------------
  C     -3.660040   -0.710067    0.247774
  C     -2.427018    0.182958    0.203468
  C     -1.166243   -0.620607   -0.110778
  C      0.043915    0.260991   -0.273600
  O      0.022554    1.426945   -0.610404
  O      1.163248   -0.400978   -0.010158
  C      2.415906    0.294372   -0.138035
  C      3.458269   -0.446948    0.677416
  H     -3.814213   -1.195916   -0.712383
  H     -3.546433   -1.477692    1.009106
  H     -4.542667   -0.121139    0.481075
  H     -2.300600    0.687197    1.163411
  H     -2.548551    0.956358   -0.557071
  H     -1.298231   -1.156023   -1.054724
  H     -0.955974   -1.358363    0.663572
  H      2.681983    0.320354   -1.199523
  H      2.278127    1.323505    0.209378
  H      3.172449   -0.462555    1.725160
  H      3.546419   -1.469577    0.323112
  H      4.415788    0.052858    0.575157

 Total Charge           Charge          ....    0
 Multiplicity           Mult            ....    1
 Number of Electrons    NEL             ....   64
 Basis Dimension        Dim             ....  136

ORBITAL ENERGIES
----------------

  NO   OCC          E(Eh)            E(eV)
   0   2.0000     -18.794934      -511.4362
   1   2.0000     -18.732516      -509.7377
   2   2.0000     -10.001341      -272.1503
   3   2.0000      -9.944564      -270.6053
   4   2.0000      -9.895107      -269.2595
   5   2.0000      -9.888206      -269.0718
   6   2.0000      -9.886510      -269.0256
   7   2.0000      -9.876075      -268.7417
   8   2.0000      -1.002002       -27.2659
   9   2.0000      -0.907032       -24.6816
  10   2.0000      -0.724895       -19.7254
  11   2.0000      -0.699517       -19.0348
  12   2.0000      -0.638298       -17.3690
  13   2.0000      -0.580299       -15.7907
  14   2.0000      -0.528524       -14.3819
  15   2.0000      -0.501446       -13.6450
  16   2.0000      -0.448195       -12.1960
  17   2.0000      -0.439816       -11.9680
  18   2.0000      -0.424151       -11.5417
  19   2.0000      -0.401406       -10.9228
  20   2.0000      -0.382323       -10.4035
  21   2.0000      -0.367397        -9.9974
  22   2.0000      -0.359888        -9.7931
  23   2.0000      -0.353809        -9.6276
  24   2.0000      -0.341707        -9.2983
  25   2.0000      -0.316448        -8.6110
  26   2.0000      -0.312622        -8.5069
  27   2.0000      -0.299907        -8.1609
  28   2.0000      -0.291178        -7.9234
  29   2.0000      -0.289523        -7.8783
  30   2.0000      -0.254794        -6.9333
  31   2.0000      -0.216706        -5.8969
  32   0.0000      -0.016395        -0.4461
  33   0.0000       0.037728         1.0266
  34   0.0000       0.049043         1.3345
  35   0.0000       0.077331         2.1043
  36   0.0000       0.082031         2.2322

MULLIKEN ATOMIC CHARGES
-----------------------
   0 C :   -0.253543
   1 C :   -0.207509
   2 C :   -0.170580
   3 C :    0.126054
   4 O :   -0.211961
   5 O :   -0.240935
   6 C :   -0.028744
   7 C :   -0.276342
   8 H :    0.096566
   9 H :    0.096077
  10 H :    0.105659
  11 H :    0.093594
  12 H :    0.106759
  13 H :    0.112147
  14 H :    0.100029
  15 H :    0.102364
  16 H :    0.111460
  17 H :    0.114010
  18 H :    0.114012
  19 H :    0.110883
Sum of atomic charges:   -0.0000000

LOEWDIN ATOMIC CHARGES
----------------------
   0 C :   -0.339766
   1 C :   -0.230076
   2 C :   -0.250305
   3 C :    0.036998
   4 O :   -0.169217
   5 O :   -0.072927
   6 C :   -0.110049
   7 C :   -0.351009
   8 H :    0.116941
   9 H :    0.116354
  10 H :    0.121134
  11 H :    0.119296
  12 H :    0.124280
  13 H :    0.141981
  14 H :    0.131222
  15 H :    0.115125
  16 H :    0.118045
  17 H :    0.126080
  18 H :    0.125976
  19 H :    0.129916

  Mayer bond orders larger than 0.100000
B(  0-C ,  1-C ) :   1.1562 B(  0-C ,  8-H ) :   0.9541 B(  0-C ,  9-H ) :   0.9527
B(  0-C , 10-H ) :   0.9538 B(  1-C ,  2-C ) :   1.1294 B(  1-C , 11-H ) :   0.9333
B(  1-C , 12-H ) :   0.9195 B(  2-C ,  3-C ) :   1.0220 B(  2-C , 13-H ) :   0.8902
B(  2-C , 14-H ) :   0.9074 B(  3-C ,  4-O ) :   2.0494 B(  3-C ,  5-O ) :   1.2166
B(  5-O ,  6-C ) :   0.9122 B(  6-C ,  7-C ) :   1.1543 B(  6-C , 15-H ) :   0.9360
B(  6-C , 16-H ) :   0.9218 B(  7-C , 17-H ) :   0.9522 B(  7-C , 18-H ) :   0.9486
B(  7-C , 19-H ) :   0.9446

Dispersion correction           -0.014194480
FINAL SINGLE POINT ENERGY      -385.458320490501

DIPOLE MOMENT
-------------

Method             : SCF
Type of density    : Electron Density
Multiplicity       :   1
Irrep              :   0
Energy             :  -385.5335547429573921 Eh
Relativity type    :
Basis              : AO
                                X                 Y                 Z
Electronic contribution:      3.069448576       3.043022151      -2.253636133
Nuclear contribution   :     -2.714267582      -3.644568139       2.454677981
                        -----------------------------------------
Total Dipole Moment    :      0.355180994      -0.601545988       0.201041848
                        -----------------------------------------
Magnitude (a.u.)       :      0.726931179
Magnitude (Debye)      :      1.847712217

Rotational constants in cm-1:             0.196777             0.027354             0.025012
Rotational constants in MHz :          5899.227599           820.050453           749.828817

                             ****ORCA TERMINATED NORMALLY****
TOTAL RUN TIME: 0 days 0 hours 0 minutes 10 seconds 343 msec
