                         Program Version 6.0.0  -   RELEASE  -
|  1> ! r2scan-3c def2/J RI DEFGRID2 scfconv6 printgap
|  2> %output
|  3>     printlevel normal
|  4> end
|  5> * xyz 0 1
|  6> C -3.6218498109 -0.6246120997 0.2440769063
|  7> C -2.2982527933 0.1172465945 0.3750779493
|  8> C -1.1632048406 -0.6355923971 -0.3181642379
|  9> C 0.1188931181 0.1549165596 -0.3211582781
| 10> O 0.1926997088 1.3656176708 -0.3231326161
| 11> O 1.1795560545 -0.6454695744 -0.3479287526
| 12> C 2.4872310084 -0.0478181451 -0.3740515259
| 13> C 2.9725221424 0.2740262491 1.0311190615
| 14> H -4.4100045514 -0.0799775074 0.7564440349
| 15> H -3.899296762 -0.7287536916 -0.8018926232
| 16> H -3.5470831974 -1.6167438577 0.6821048932
| 17> H -2.0502302205 0.2470537214 1.4302505425
| 18> H -2.3789255828 1.1121466791 -0.0666682343
| 19> H -1.4281606828 -0.813677371 -1.3637857744
| 20> H -0.9757094723 -1.6020923831 0.1492904578
| 21> H 3.1205191593 -0.7956645825 -0.8519717582
| 22> H 2.443471236 0.8602464994 -0.9829467881
| 23> H 2.3291209646 1.0253253106 1.4836932664
| 24> H 2.9588376635 -0.6216550165 1.6460487349
| 25> H 3.9851115337 0.6608222392 0.9820137249
| 26> *
| 27>
| 28>                          ****END OF INPUT****

CARTESIAN COORDINATES (ANGSTROEM)
---------------------------------
  C     -3.621850   -0.624612    0.244077
  C     -2.298253    0.117247    0.375078
  C     -1.163205   -0.635592   -0.318164
  C      0.118893    0.154917   -0.321158
  O      0.192700    1.365618   -0.323133
  O      1.179556   -0.645470   -0.347929
  C      2.487231   -0.047818   -0.374052
  C      2.972522    0.274026    1.031119
  H     -4.410005   -0.079978    0.756444
  H     -3.899297   -0.728754   -0.801893
  H     -3.547083   -1.616744    0.682105
  H     -2.050230    0.247054    1.430251
  H     -2.378926    1.112147   -0.066668
  H     -1.428161   -0.813677   -1.363786
  H     -0.975709   -1.602092    0.149290
  H      3.120519   -0.795665   -0.851972
  H      2.443471    0.860246   -0.982947
  H      2.329121    1.025325    1.483693
  H      2.958838   -0.621655    1.646049
  H      3.985112    0.660822    0.982014

 Total Charge           Charge          ....    0
 Multiplicity           Mult            ....    1
 Number of Electrons    NEL             ....   64
 Basis Dimension        Dim             ....  222

ORBITAL ENERGIES
----------------

  NO   OCC          E(Eh)            E(eV)
   0   2.0000     -18.995255      -516.8872
   1   2.0000     -18.928011      -515.0574
   2   2.0000     -10.151569      -276.2382
   3   2.0000     -10.090338      -274.5721
   4   2.0000     -10.041245      -273.2362
   5   2.0000     -10.029909      -272.9277
   6   2.0000     -10.027974      -272.8751
   7   2.0000     -10.019820      -272.6532
   8   2.0000      -1.070082       -29.1184
   9   2.0000      -0.975338       -26.5403
  10   2.0000      -0.771059       -20.9816
  11   2.0000      -0.739575       -20.1249
  12   2.0000      -0.680129       -18.5073
  13   2.0000      -0.621971       -16.9247
  14   2.0000      -0.563422       -15.3315
  15   2.0000      -0.518474       -14.1084
  16   2.0000      -0.473322       -12.8797
  17   2.0000      -0.453580       -12.3426
  18   2.0000      -0.447092       -12.1660
  19   2.0000      -0.418025       -11.3750
  20   2.0000      -0.411363       -11.1937
  21   2.0000      -0.390251       -10.6193
  22   2.0000      -0.372573       -10.1382
  23   2.0000      -0.366128        -9.9628
  24   2.0000      -0.351261        -9.5583
  25   2.0000      -0.339358        -9.2344
  26   2.0000      -0.321982        -8.7616
  27   2.0000      -0.311471        -8.4756
  28   2.0000      -0.305829        -8.3220
  29   2.0000      -0.301148        -8.1946
  30   2.0000      -0.270907        -7.3717
  31   2.0000      -0.236100        -6.4246
  32   0.0000      -0.013182        -0.3587
  33   0.0000       0.079257         2.1567
  34   0.0000       0.091180         2.4811
  35   0.0000       0.104537         2.8446
  36   0.0000       0.124387         3.3847

MULLIKEN ATOMIC CHARGES
-----------------------
   0 C :   -0.467660
   1 C :   -0.231120
   2 C :   -0.330796
   3 C :    0.395949
   4 O :   -0.434884
   5 O :   -0.179572
   6 C :   -0.137831
   7 C :   -0.470259
   8 H :    0.150099
   9 H :    0.143247
  10 H :    0.139897
  11 H :    0.138939
  12 H :    0.165967
  13 H :    0.167506
  14 H :    0.165008
  15 H :    0.147724
  16 H :    0.166589
  17 H :    0.173433
  18 H :    0.151220
  19 H :    0.146545
Sum of atomic charges:   -0.0000000

LOEWDIN ATOMIC CHARGES
----------------------
   0 C :   -0.421792
   1 C :   -0.295252
   2 C :   -0.231331
   3 C :    0.363523
   4 O :   -0.439166
   5 O :   -0.596331
   6 C :    0.026596
   7 C :   -0.390728
   8 H :    0.152635
   9 H :    0.149925
  10 H :    0.149570
  11 H :    0.156581
  12 H :    0.168213
  13 H :    0.182454
  14 H :    0.178882
  15 H :    0.177457
  16 H :    0.187375
  17 H :    0.165625
  18 H :    0.156801
  19 H :    0.158963

  Mayer bond orders larger than 0.100000
B(  0-C ,  1-C ) :   0.8830 B(  0-C ,  8-H ) :   0.9754 B(  0-C ,  9-H ) :   0.9885
B(  0-C , 10-H ) :   0.9780 B(  1-C ,  2-C ) :   0.9399 B(  1-C , 11-H ) :   0.9612
B(  1-C , 12-H ) :   0.9652 B(  2-C ,  3-C ) :   0.9851 B(  2-C , 13-H ) :   0.9426
B(  2-C , 14-H ) :   0.9719 B(  3-C ,  4-O ) :   1.8221 B(  3-C ,  5-O ) :   1.0677
B(  5-O ,  6-C ) :   0.8174 B(  6-C ,  7-C ) :   0.9375 B(  6-C , 15-H ) :   0.9611
B(  6-C , 16-H ) :   0.9676 B(  7-C , 17-H ) :   0.9719 B(  7-C , 18-H ) :   0.9736
B(  7-C , 19-H ) :   0.9651

Dispersion correction           -0.004911801
FINAL SINGLE POINT ENERGY      -386.236533871043

DIPOLE MOMENT
-------------

Method             : SCF
Type of density    : Electron Density
Multiplicity       :   1
Irrep              :   0
Energy             :  -386.2433472831599488 Eh
Relativity type    :
Basis              : AO
                                X                 Y                 Z
Electronic contribution:      3.838151527       1.548473253      -2.795472114
Nuclear contribution   :     -3.593798362      -2.196799584       2.863260406
                        -----------------------------------------
Total Dipole Moment    :      0.244353165      -0.648326331       0.067788291
                        -----------------------------------------
Magnitude (a.u.)       :      0.696154259
Magnitude (Debye)      :      1.769483504

Rotational constants in cm-1:             0.186231             0.028693             0.027815
Rotational constants in MHz :          5583.066478           860.202537           833.863650

                             ****ORCA TERMINATED NORMALLY****
TOTAL RUN TIME: 0 days 0 hours 0 minutes 32 seconds 345 msec
