                         Program Version 6.0.0  -   RELEASE  -
|  1> ! r2scan-3c def2/J RI DEFGRID2 scfconv6 printgap
|  2> %output
|  3>     printlevel normal
|  4> end
|  5> %cpcm
|  6>     smd true
|  7>     smdsolvent "water"
|  8> end
|  9> * xyz 0 1
| 10> C -3.6218498109 -0.6246120997 0.2440769063
| 11> C -2.2982527933 0.1172465945 0.3750779493
| 12> C -1.1632048406 -0.6355923971 -0.3181642379
| 13> C 0.1188931181 0.1549165596 -0.3211582781
| 14> O 0.1926997088 1.3656176708 -0.3231326161
| 15> O 1.1795560545 -0.6454695744 -0.3479287526
| 16> C 2.4872310084 -0.0478181451 -0.3740515259
| 17> C 2.9725221424 0.2740262491 1.0311190615
| 18> H -4.4100045514 -0.0799775074 0.7564440349
| 19> H -3.899296762 -0.7287536916 -0.8018926232
| 20> H -3.5470831974 -1.6167438577 0.6821048932
| 21> H -2.0502302205 0.2470537214 1.4302505425
| 22> H -2.3789255828 1.1121466791 -0.0666682343
| 23> H -1.4281606828 -0.813677371 -1.3637857744
| 24> H -0.9757094723 -1.6020923831 0.1492904578
| 25> H 3.1205191593 -0.7956645825 -0.8519717582
| 26> H 2.443471236 0.8602464994 -0.9829467881
| 27> H 2.3291209646 1.0253253106 1.4836932664
| 28> H 2.9588376635 -0.6216550165 1.6460487349
| 29> H 3.9851115337 0.6608222392 0.9820137249
| 30> *
| 31>
| 32>                          ****END OF INPUT****

CARTESIAN COORDINATES (ANGSTROEM)
---------------------------------
  C     -3.621850   -0.624612    0.244077
  C     -2.298253    0.117247    0.375078
  C     -1.163205   -0.635592   -0.318164
  C      0.118893    0.154917   -0.321158
  O      0.192700    1.365618   -0.323133
  O      1.179556   -0.645470   -0.347929
  C      2.487231   -0.047818   -0.374052
  C      2.972522    0.274026    1.031119
  H     -4.410005   -0.079978    0.756444
  H     -3.899297   -0.728754   -0.801893
  H     -3.547083   -1.616744    0.682105
  H     -2.050230    0.247054    1.430251
  H     -2.378926    1.112147   -0.066668
  H     -1.428161   -0.813677   -1.363786
  H     -0.975709   -1.602092    0.149290
  H      3.120519   -0.795665   -0.851972
  H      2.443471    0.860246   -0.982947
  H      2.329121    1.025325    1.483693
  H      2.958838   -0.621655    1.646049
  H      3.985112    0.660822    0.982014

 Total Charge           Charge          ....    0
 Multiplicity           Mult            ....    1
 Number of Electrons    NEL             ....   64
 Basis Dimension        Dim             ....  222

ORBITAL ENERGIES
----------------

  NO   OCC          E(Eh)            E(eV)
   0   2.0000     -19.001207      -517.0491
   1   2.0000     -18.943404      -515.4762
   2   2.0000     -10.162038      -276.5231
   3   2.0000     -10.082833      -274.3678
   4   2.0000     -10.035093      -273.0688
   5   2.0000     -10.024884      -272.7910
   6   2.0000     -10.018004      -272.6037
   7   2.0000     -10.010742      -272.4061
   8   2.0000      -1.077656       -29.3245
   9   2.0000      -0.988625       -26.9019
  10   2.0000      -0.766658       -20.8618
  11   2.0000      -0.733271       -19.9533
  12   2.0000      -0.674191       -18.3457
  13   2.0000      -0.616978       -16.7888
  14   2.0000      -0.557459       -15.1692
  15   2.0000      -0.517056       -14.0698
  16   2.0000      -0.473651       -12.8887
  17   2.0000      -0.456229       -12.4146
  18   2.0000      -0.451950       -12.2982
  19   2.0000      -0.418644       -11.3919
  20   2.0000      -0.408070       -11.1041
  21   2.0000      -0.383719       -10.4415
  22   2.0000      -0.368305       -10.0221
  23   2.0000      -0.359362        -9.7787
  24   2.0000      -0.347062        -9.4440
  25   2.0000      -0.337858        -9.1936
  26   2.0000      -0.316848        -8.6219
  27   2.0000      -0.306005        -8.3268
  28   2.0000      -0.303465        -8.2577
  29   2.0000      -0.295662        -8.0454
  30   2.0000      -0.277880        -7.5615
  31   2.0000      -0.251681        -6.8486
  32   0.0000      -0.021011        -0.5717
  33   0.0000       0.081468         2.2168
  34   0.0000       0.097596         2.6557
  35   0.0000       0.113821         3.0972
  36   0.0000       0.133077         3.6212

MULLIKEN ATOMIC CHARGES
-----------------------
   0 C :   -0.514204
   1 C :   -0.238762
   2 C :   -0.342516
   3 C :    0.436521
   4 O :   -0.516759
   5 O :   -0.200384
   6 C :   -0.143573
   7 C :   -0.495213
   8 H :    0.160146
   9 H :    0.158120
  10 H :    0.155218
  11 H :    0.155951
  12 H :    0.154980
  13 H :    0.199301
  14 H :    0.182461
  15 H :    0.173457
  16 H :    0.171205
  17 H :    0.168675
  18 H :    0.165438
  19 H :    0.169937
Sum of atomic charges:   -0.0000000

LOEWDIN ATOMIC CHARGES
----------------------
   0 C :   -0.426789
   1 C :   -0.296954
   2 C :   -0.228186
   3 C :    0.374433
   4 O :   -0.497945
   5 O :   -0.600035
   6 C :    0.031074
   7 C :   -0.393574
   8 H :    0.155068
   9 H :    0.154224
  10 H :    0.154358
  11 H :    0.160060
  12 H :    0.163046
  13 H :    0.194464
  14 H :    0.187348
  15 H :    0.188697
  16 H :    0.188825
  17 H :    0.162483
  18 H :    0.161816
  19 H :    0.167586

  Mayer bond orders larger than 0.100000
B(  0-C ,  1-C ) :   0.8835 B(  0-C ,  8-H ) :   0.9723 B(  0-C ,  9-H ) :   0.9849
B(  0-C , 10-H ) :   0.9761 B(  1-C ,  2-C ) :   0.9244 B(  1-C , 11-H ) :   0.9628
B(  1-C , 12-H ) :   0.9654 B(  2-C ,  3-C ) :   0.9904 B(  2-C , 13-H ) :   0.9293
B(  2-C , 14-H ) :   0.9624 B(  3-C ,  4-O ) :   1.7621 B(  3-C ,  5-O ) :   1.0896
B(  5-O ,  6-C ) :   0.7989 B(  6-C ,  7-C ) :   0.9361 B(  6-C , 15-H ) :   0.9517
B(  6-C , 16-H ) :   0.9636 B(  7-C , 17-H ) :   0.9699 B(  7-C , 18-H ) :   0.9696
B(  7-C , 19-H ) :   0.9601

Dispersion correction           -0.004911801
FINAL SINGLE POINT ENERGY      -386.241299531918

DIPOLE MOMENT
-------------

Method             : SCF
Type of density    : Electron Density
Multiplicity       :   1
Irrep              :   0
Energy             :  -386.2481129440351424 Eh
Relativity type    :
Basis              : AO
                                X                 Y                 Z
Electronic contribution:      3.924303046       1.184502063      -2.811809999
Nuclear contribution   :     -3.593798362      -2.196799584       2.863260406
                        -----------------------------------------
Total Dipole Moment    :      0.330504684      -1.012297521       0.051450406
                        -----------------------------------------
Magnitude (a.u.)       :      1.066126991
Magnitude (Debye)      :      2.709879453

Rotational constants in cm-1:             0.186231             0.028693             0.027815
Rotational constants in MHz :          5583.066478           860.202537           833.863650

                             ****ORCA TERMINATED NORMALLY****
TOTAL RUN TIME: 0 days 0 hours 0 minutes 38 seconds 606 msec
