                         Program Version 6.0.0  -   RELEASE  -
|  1> ! r2scan-3c def2/J RI DEFGRID2 scfconv6 printgap
|  2> %output
|  3>     printlevel normal
|  4> end
|  5> * xyz 0 1
|  6> C -3.5871495203 -0.7821305744 0.2767426983
|  7> C -2.2909633792 -0.0099218687 0.4846185595
|  8> C -1.2082581221 -0.4618180953 -0.5028061904
|  9> C 0.0287587239 0.3817206937 -0.3465900835
| 10> O 0.0689952665 1.5884052742 -0.4800600582
| 11> O 1.0883149396 -0.3471556549 -0.0287808714
| 12> C 2.3416311838 0.332801218 0.160153139
| 13> C 3.4130138889 -0.7109185309 0.4087219335
| 14> H -4.3367947111 -0.4548451605 0.991799274
| 15> H -3.9722142179 -0.6180048855 -0.7263456211
| 16> H -3.4207922292 -1.8475373404 0.4134674831
| 17> H -1.9319499499 -0.1616743085 1.5044956531
| 18> H -2.4637836511 1.0592776588 0.3469675224
| 19> H -1.5786044205 -0.330757063 -1.5210909572
| 20> H -0.945085631 -1.5063680143 -0.3423050801
| 21> H 2.5499699473 0.9282021624 -0.7348119825
| 22> H 2.2365539977 1.0179550705 1.0076888908
| 23> H 3.4856227462 -1.3798588349 -0.4435940898
| 24> H 4.3671866526 -0.2172548674 0.5598008886
| 25> H 3.1660284139 -1.2934704915 1.2911645033
| 26> *
| 27>
| 28>                          ****END OF INPUT****

CARTESIAN COORDINATES (ANGSTROEM)
---------------------------------
  C     -3.587150   -0.782131    0.276743
  C     -2.290963   -0.009922    0.484619
  C     -1.208258   -0.461818   -0.502806
  C      0.028759    0.381721   -0.346590
  O      0.068995    1.588405   -0.480060
  O      1.088315   -0.347156   -0.028781
  C      2.341631    0.332801    0.160153
  C      3.413014   -0.710919    0.408722
  H     -4.336795   -0.454845    0.991799
  H     -3.972214   -0.618005   -0.726346
  H     -3.420792   -1.847537    0.413467
  H     -1.931950   -0.161674    1.504496
  H     -2.463784    1.059278    0.346968
  H     -1.578604   -0.330757   -1.521091
  H     -0.945086   -1.506368   -0.342305
  H      2.549970    0.928202   -0.734812
  H      2.236554    1.017955    1.007689
  H      3.485623   -1.379859   -0.443594
  H      4.367187   -0.217255    0.559801
  H      3.166028   -1.293470    1.291165

 Total Charge           Charge          ....    0
 Multiplicity           Mult            ....    1
 Number of Electrons    NEL             ....   64
 Basis Dimension        Dim             ....  222

ORBITAL ENERGIES
----------------

  NO   OCC          E(Eh)            E(eV)
   0   2.0000     -18.996611      -516.9241
   1   2.0000     -18.925373      -514.9856
   2   2.0000     -10.149502      -276.1820
   3   2.0000     -10.091160      -274.5944
   4   2.0000     -10.040145      -273.2062
   5   2.0000     -10.034794      -273.0606
   6   2.0000     -10.032155      -272.9888
   7   2.0000     -10.021654      -272.7031
   8   2.0000      -1.071253       -29.1503
   9   2.0000      -0.972679       -26.4679
  10   2.0000      -0.772982       -21.0339
  11   2.0000      -0.743799       -20.2398
  12   2.0000      -0.680577       -18.5194
  13   2.0000      -0.614640       -16.7252
  14   2.0000      -0.565061       -15.3761
  15   2.0000      -0.532661       -14.4944
  16   2.0000      -0.465843       -12.6762
  17   2.0000      -0.462283       -12.5793
  18   2.0000      -0.443264       -12.0618
  19   2.0000      -0.426094       -11.5946
  20   2.0000      -0.403192       -10.9714
  21   2.0000      -0.384068       -10.4510
  22   2.0000      -0.375194       -10.2096
  23   2.0000      -0.367767       -10.0074
  24   2.0000      -0.357389        -9.7251
  25   2.0000      -0.336043        -9.1442
  26   2.0000      -0.326596        -8.8871
  27   2.0000      -0.314078        -8.5465
  28   2.0000      -0.307010        -8.3542
  29   2.0000      -0.304577        -8.2880
  30   2.0000      -0.270717        -7.3666
  31   2.0000      -0.232914        -6.3379
  32   0.0000      -0.013916        -0.3787
  33   0.0000       0.076613         2.0847
  34   0.0000       0.097665         2.6576
  35   0.0000       0.104246         2.8367
  36   0.0000       0.120973         3.2918

MULLIKEN ATOMIC CHARGES
-----------------------
   0 C :   -0.471633
   1 C :   -0.226153
   2 C :   -0.345086
   3 C :    0.396983
   4 O :   -0.428981
   5 O :   -0.165752
   6 C :   -0.153008
   7 C :   -0.441648
   8 H :    0.150402
   9 H :    0.145530
  10 H :    0.142448
  11 H :    0.137643
  12 H :    0.167164
  13 H :    0.163607
  14 H :    0.162461
  15 H :    0.159510
  16 H :    0.154729
  17 H :    0.152632
  18 H :    0.147286
  19 H :    0.151867
Sum of atomic charges:    0.0000000

LOEWDIN ATOMIC CHARGES
----------------------
   0 C :   -0.420811
   1 C :   -0.289627
   2 C :   -0.231035
   3 C :    0.356124
   4 O :   -0.430742
   5 O :   -0.598998
   6 C :    0.033608
   7 C :   -0.386906
   8 H :    0.153004
   9 H :    0.150831
  10 H :    0.150114
  11 H :    0.155291
  12 H :    0.166173
  13 H :    0.179545
  14 H :    0.176294
  15 H :    0.180728
  16 H :    0.178242
  17 H :    0.159377
  18 H :    0.159532
  19 H :    0.159259

  Mayer bond orders larger than 0.100000
B(  0-C ,  1-C ) :   0.8913 B(  0-C ,  8-H ) :   0.9734 B(  0-C ,  9-H ) :   0.9876
B(  0-C , 10-H ) :   0.9806 B(  1-C ,  2-C ) :   0.9235 B(  1-C , 11-H ) :   0.9576
B(  1-C , 12-H ) :   0.9636 B(  2-C ,  3-C ) :   0.9616 B(  2-C , 13-H ) :   0.9628
B(  2-C , 14-H ) :   0.9877 B(  3-C ,  4-O ) :   1.8002 B(  3-C ,  5-O ) :   1.0751
B(  5-O ,  6-C ) :   0.8071 B(  6-C ,  7-C ) :   0.9391 B(  6-C , 15-H ) :   0.9547
B(  6-C , 16-H ) :   0.9513 B(  7-C , 17-H ) :   0.9731 B(  7-C , 18-H ) :   0.9683
B(  7-C , 19-H ) :   0.9714

Dispersion correction           -0.004803305
FINAL SINGLE POINT ENERGY      -386.235893158119

DIPOLE MOMENT
-------------

Method             : SCF
Type of density    : Electron Density
Multiplicity       :   1
Irrep              :   0
Energy             :  -386.2427057426835404 Eh
Relativity type    :
Basis              : AO
                                X                 Y                 Z
Electronic contribution:      2.919795670       3.749012642      -1.983584438
Nuclear contribution   :     -2.650856823      -4.488862658       2.194553926
                        -----------------------------------------
Total Dipole Moment    :      0.268938846      -0.739850016       0.210969488
                        -----------------------------------------
Magnitude (a.u.)       :      0.814993420
Magnitude (Debye)      :      2.071548644

Rotational constants in cm-1:             0.171883             0.028414             0.025821
Rotational constants in MHz :          5152.914936           851.843136           774.079703

                             ****ORCA TERMINATED NORMALLY****
TOTAL RUN TIME: 0 days 0 hours 0 minutes 31 seconds 629 msec
