                         Program Version 6.0.0  -   RELEASE  -
|  1> ! r2scan-3c def2/J RI DEFGRID2 scfconv6 printgap
|  2> %output
|  3>     printlevel normal
|  4> end
|  5> %cpcm
|  6>     smd true
|  7>     smdsolvent "water"
|  8> end
|  9> * xyz 0 1
| 10> C -3.5871495203 -0.7821305744 0.2767426983
| 11> C -2.2909633792 -0.0099218687 0.4846185595
| 12> C -1.2082581221 -0.4618180953 -0.5028061904
| 13> C 0.0287587239 0.3817206937 -0.3465900835
| 14> O 0.0689952665 1.5884052742 -0.4800600582
| 15> O 1.0883149396 -0.3471556549 -0.0287808714
| 16> C 2.3416311838 0.332801218 0.160153139
| 17> C 3.4130138889 -0.7109185309 0.4087219335
| 18> H -4.3367947111 -0.4548451605 0.991799274
| 19> H -3.9722142179 -0.6180048855 -0.7263456211
| 20> H -3.4207922292 -1.8475373404 0.4134674831
| 21> H -1.9319499499 -0.1616743085 1.5044956531
| 22> H -2.4637836511 1.0592776588 0.3469675224
| 23> H -1.5786044205 -0.330757063 -1.5210909572
| 24> H -0.945085631 -1.5063680143 -0.3423050801
| 25> H 2.5499699473 0.9282021624 -0.7348119825
| 26> H 2.2365539977 1.0179550705 1.0076888908
| 27> H 3.4856227462 -1.3798588349 -0.4435940898
| 28> H 4.3671866526 -0.2172548674 0.5598008886
| 29> H 3.1660284139 -1.2934704915 1.2911645033
| 30> *
| 31>
| 32>                          ****END OF INPUT****

CARTESIAN COORDINATES (ANGSTROEM)
---------------------------------
  C     -3.587150   -0.782131    0.276743
  C     -2.290963   -0.009922    0.484619
  C     -1.208258   -0.461818   -0.502806
  C      0.028759    0.381721   -0.346590
  O      0.068995    1.588405   -0.480060
  O      1.088315   -0.347156   -0.028781
  C      2.341631    0.332801    0.160153
  C      3.413014   -0.710919    0.408722
  H     -4.336795   -0.454845    0.991799
  H     -3.972214   -0.618005   -0.726346
  H     -3.420792   -1.847537    0.413467
  H     -1.931950   -0.161674    1.504496
  H     -2.463784    1.059278    0.346968
  H     -1.578604   -0.330757   -1.521091
  H     -0.945086   -1.506368   -0.342305
  H      2.549970    0.928202   -0.734812
  H      2.236554    1.017955    1.007689
  H      3.485623   -1.379859   -0.443594
  H      4.367187   -0.217255    0.559801
  H      3.166028   -1.293470    1.291165

 Total Charge           Charge          ....    0
 Multiplicity           Mult            ....    1
 Number of Electrons    NEL             ....   64
 Basis Dimension        Dim             ....  222

ORBITAL ENERGIES
----------------

  NO   OCC          E(Eh)            E(eV)
   0   2.0000     -19.003259      -517.1050
   1   2.0000     -18.942966      -515.4643
   2   2.0000     -10.161538      -276.5095
   3   2.0000     -10.083938      -274.3979
   4   2.0000     -10.034916      -273.0639
   5   2.0000     -10.028498      -272.8893
   6   2.0000     -10.018898      -272.6281
   7   2.0000     -10.011522      -272.4274
   8   2.0000      -1.079695       -29.3800
   9   2.0000      -0.988000       -26.8848
  10   2.0000      -0.768510       -20.9122
  11   2.0000      -0.736248       -20.0343
  12   2.0000      -0.674159       -18.3448
  13   2.0000      -0.608169       -16.5491
  14   2.0000      -0.558253       -15.1908
  15   2.0000      -0.531825       -14.4717
  16   2.0000      -0.469028       -12.7629
  17   2.0000      -0.462897       -12.5961
  18   2.0000      -0.446595       -12.1525
  19   2.0000      -0.427719       -11.6388
  20   2.0000      -0.400085       -10.8869
  21   2.0000      -0.379676       -10.3315
  22   2.0000      -0.367198        -9.9920
  23   2.0000      -0.362269        -9.8578
  24   2.0000      -0.348860        -9.4930
  25   2.0000      -0.330988        -9.0066
  26   2.0000      -0.321949        -8.7607
  27   2.0000      -0.313189        -8.5223
  28   2.0000      -0.304230        -8.2785
  29   2.0000      -0.296880        -8.0785
  30   2.0000      -0.277978        -7.5642
  31   2.0000      -0.250968        -6.8292
  32   0.0000      -0.023073        -0.6279
  33   0.0000       0.079179         2.1546
  34   0.0000       0.107534         2.9261
  35   0.0000       0.113188         3.0800
  36   0.0000       0.127876         3.4797

MULLIKEN ATOMIC CHARGES
-----------------------
   0 C :   -0.516150
   1 C :   -0.223136
   2 C :   -0.365061
   3 C :    0.446337
   4 O :   -0.517068
   5 O :   -0.182218
   6 C :   -0.155630
   7 C :   -0.490476
   8 H :    0.161337
   9 H :    0.159127
  10 H :    0.157570
  11 H :    0.155573
  12 H :    0.158241
  13 H :    0.190505
  14 H :    0.177885
  15 H :    0.171384
  16 H :    0.172461
  17 H :    0.165482
  18 H :    0.169019
  19 H :    0.164817
Sum of atomic charges:   -0.0000000

LOEWDIN ATOMIC CHARGES
----------------------
   0 C :   -0.425803
   1 C :   -0.289102
   2 C :   -0.227971
   3 C :    0.366660
   4 O :   -0.493998
   5 O :   -0.599962
   6 C :    0.035953
   7 C :   -0.389717
   8 H :    0.155929
   9 H :    0.154541
  10 H :    0.154811
  11 H :    0.160548
  12 H :    0.162076
  13 H :    0.189139
  14 H :    0.184023
  15 H :    0.184968
  16 H :    0.184218
  17 H :    0.162660
  18 H :    0.168309
  19 H :    0.162720

  Mayer bond orders larger than 0.100000
B(  0-C ,  1-C ) :   0.8876 B(  0-C ,  8-H ) :   0.9702 B(  0-C ,  9-H ) :   0.9843
B(  0-C , 10-H ) :   0.9783 B(  1-C ,  2-C ) :   0.9109 B(  1-C , 11-H ) :   0.9566
B(  1-C , 12-H ) :   0.9643 B(  2-C ,  3-C ) :   0.9609 B(  2-C , 13-H ) :   0.9536
B(  2-C , 14-H ) :   0.9796 B(  3-C ,  4-O ) :   1.7321 B(  3-C ,  5-O ) :   1.1028
B(  5-O ,  6-C ) :   0.7934 B(  6-C ,  7-C ) :   0.9411 B(  6-C , 15-H ) :   0.9474
B(  6-C , 16-H ) :   0.9430 B(  7-C , 17-H ) :   0.9714 B(  7-C , 18-H ) :   0.9618
B(  7-C , 19-H ) :   0.9692

Dispersion correction           -0.004803305
FINAL SINGLE POINT ENERGY      -386.241508657504

DIPOLE MOMENT
-------------

Method             : SCF
Type of density    : Electron Density
Multiplicity       :   1
Irrep              :   0
Energy             :  -386.2483212420686982 Eh
Relativity type    :
Basis              : AO
                                X                 Y                 Z
Electronic contribution:      3.000687158       3.416134680      -1.924479311
Nuclear contribution   :     -2.650856823      -4.488862658       2.194553926
                        -----------------------------------------
Total Dipole Moment    :      0.349830335      -1.072727979       0.270074615
                        -----------------------------------------
Magnitude (a.u.)       :      1.160201223
Magnitude (Debye)      :      2.948997147

Rotational constants in cm-1:             0.171883             0.028414             0.025821
Rotational constants in MHz :          5152.914936           851.843136           774.079703

                             ****ORCA TERMINATED NORMALLY****
TOTAL RUN TIME: 0 days 0 hours 0 minutes 36 seconds 845 msec
