                         Program Version 6.0.0  -   RELEASE  -
|  1> ! pbe def2-sv(p) def2/J RI DEFGRID1 loosescf d4 GCP(DFT/SV(P)) printgap
|  2> %output
|  3>     printlevel normal
|  4> end
|  5> * xyz 0 1
|  6> C -2.2857065606 -1.4708024063 -0.2052387979
|  7> C -2.474796187 0.0367334296 -0.0867109898
|  8> C -1.34905254 0.6829315675 0.7233910803
|  9> C -0.0337283587 0.6220649074 -0.0109344529
| 10> O 0.1136264501 0.8386857591 -1.1954213902
| 11> O 0.9656963968 0.3248011661 0.8120449683
| 12> C 2.2961925724 0.2380732601 0.2749079616
| 13> C 2.5863995956 -1.1634503679 -0.2400058367
| 14> H -1.3554222136 -1.6954279404 -0.7234782746
| 15> H -2.2523865437 -1.9311680038 0.7793186122
| 16> H -3.1043576835 -1.9125375542 -0.766897272
| 17> H -3.4275085413 0.2499633856 0.3985265026
| 18> H -2.487277535 0.4827802147 -1.0829120902
| 19> H -1.2276392134 0.1997567647 1.6923212291
| 20> H -1.5735101939 1.7395635375 0.8840365282
| 21> H 2.3965731324 0.973125245 -0.5295370863
| 22> H 2.9483161642 0.4971335306 1.1095476992
| 23> H 2.4244354928 -1.8926589132 0.5490307536
| 24> H 1.9318206076 -1.3956614115 -1.0772131683
| 25> H 3.617270435 -1.2183299618 -0.5740712936
| 26> *
| 27>
| 28>                          ****END OF INPUT****

CARTESIAN COORDINATES (ANGSTROEM)
---------------------------------
  C     -2.285707   -1.470802   -0.205239
  C     -2.474796    0.036733   -0.086711
  C     -1.349053    0.682932    0.723391
  C     -0.033728    0.622065   -0.010934
  O      0.113626    0.838686   -1.195421
  O      0.965696    0.324801    0.812045
  C      2.296193    0.238073    0.274908
  C      2.586400   -1.163450   -0.240006
  H     -1.355422   -1.695428   -0.723478
  H     -2.252387   -1.931168    0.779319
  H     -3.104358   -1.912538   -0.766897
  H     -3.427509    0.249963    0.398527
  H     -2.487278    0.482780   -1.082912
  H     -1.227639    0.199757    1.692321
  H     -1.573510    1.739564    0.884037
  H      2.396573    0.973125   -0.529537
  H      2.948316    0.497134    1.109548
  H      2.424435   -1.892659    0.549031
  H      1.931821   -1.395661   -1.077213
  H      3.617270   -1.218330   -0.574071

 Total Charge           Charge          ....    0
 Multiplicity           Mult            ....    1
 Number of Electrons    NEL             ....   64
 Basis Dimension        Dim             ....  136

ORBITAL ENERGIES
----------------

  NO   OCC          E(Eh)            E(eV)
   0   2.0000     -18.797345      -511.5018
   1   2.0000     -18.732114      -509.7267
   2   2.0000     -10.005179      -272.2548
   3   2.0000      -9.946080      -270.6466
   4   2.0000      -9.896312      -269.2923
   5   2.0000      -9.888760      -269.0868
   6   2.0000      -9.887160      -269.0433
   7   2.0000      -9.875763      -268.7332
   8   2.0000      -1.003764       -27.3138
   9   2.0000      -0.909148       -24.7392
  10   2.0000      -0.726247       -19.7622
  11   2.0000      -0.696717       -18.9586
  12   2.0000      -0.636336       -17.3156
  13   2.0000      -0.590493       -16.0681
  14   2.0000      -0.531356       -14.4589
  15   2.0000      -0.491648       -13.3784
  16   2.0000      -0.451947       -12.2981
  17   2.0000      -0.433958       -11.8086
  18   2.0000      -0.425132       -11.5684
  19   2.0000      -0.395356       -10.7582
  20   2.0000      -0.391418       -10.6510
  21   2.0000      -0.373860       -10.1732
  22   2.0000      -0.359225        -9.7750
  23   2.0000      -0.353909        -9.6304
  24   2.0000      -0.337330        -9.1792
  25   2.0000      -0.328764        -8.9461
  26   2.0000      -0.304042        -8.2734
  27   2.0000      -0.297670        -8.1000
  28   2.0000      -0.295690        -8.0461
  29   2.0000      -0.287338        -7.8189
  30   2.0000      -0.255869        -6.9626
  31   2.0000      -0.218893        -5.9564
  32   0.0000      -0.020175        -0.5490
  33   0.0000       0.036340         0.9889
  34   0.0000       0.057035         1.5520
  35   0.0000       0.070346         1.9142
  36   0.0000       0.081199         2.2095

MULLIKEN ATOMIC CHARGES
-----------------------
   0 C :   -0.292320
   1 C :   -0.188006
   2 C :   -0.135049
   3 C :    0.094132
   4 O :   -0.211559
   5 O :   -0.234747
   6 C :   -0.014408
   7 C :   -0.305040
   8 H :    0.115902
   9 H :    0.097497
  10 H :    0.107063
  11 H :    0.088431
  12 H :    0.107320
  13 H :    0.094582
  14 H :    0.115610
  15 H :    0.107347
  16 H :    0.101321
  17 H :    0.113186
  18 H :    0.126831
  19 H :    0.111906
Sum of atomic charges:   -0.0000000

LOEWDIN ATOMIC CHARGES
----------------------
   0 C :   -0.342553
   1 C :   -0.229552
   2 C :   -0.248472
   3 C :    0.038025
   4 O :   -0.173325
   5 O :   -0.066949
   6 C :   -0.113554
   7 C :   -0.355916
   8 H :    0.120268
   9 H :    0.116302
  10 H :    0.121517
  11 H :    0.117467
  12 H :    0.125183
  13 H :    0.127686
  14 H :    0.144261
  15 H :    0.119019
  16 H :    0.116674
  17 H :    0.124253
  18 H :    0.129604
  19 H :    0.130062

  Mayer bond orders larger than 0.100000
B(  0-C ,  1-C ) :   1.1546 B(  0-C ,  8-H ) :   0.9506 B(  0-C ,  9-H ) :   0.9538
B(  0-C , 10-H ) :   0.9524 B(  1-C ,  2-C ) :   1.1135 B(  1-C , 11-H ) :   0.9269
B(  1-C , 12-H ) :   0.9172 B(  2-C ,  3-C ) :   1.0199 B(  2-C , 13-H ) :   0.9117
B(  2-C , 14-H ) :   0.8882 B(  3-C ,  4-O ) :   2.0315 B(  3-C ,  5-O ) :   1.2213
B(  5-O ,  6-C ) :   0.9226 B(  6-C ,  7-C ) :   1.1728 B(  6-C , 15-H ) :   0.9129
B(  6-C , 16-H ) :   0.9374 B(  7-C , 17-H ) :   0.9492 B(  7-C , 18-H ) :   0.9462
B(  7-C , 19-H ) :   0.9442

Dispersion correction           -0.015284049
FINAL SINGLE POINT ENERGY      -385.458938929462

DIPOLE MOMENT
-------------

Method             : SCF
Type of density    : Electron Density
Multiplicity       :   1
Irrep              :   0
Energy             :  -385.5338947996499996 Eh
Relativity type    :
Basis              : AO
                                X                 Y                 Z
Electronic contribution:      2.190228802       5.308282921      -0.039980482
Nuclear contribution   :     -1.963232857      -5.521178240       0.612259498
                        -----------------------------------------
Total Dipole Moment    :      0.226995945      -0.212895319       0.572279016
                        -----------------------------------------
Magnitude (a.u.)       :      0.651425243
Magnitude (Debye)      :      1.655791380

Rotational constants in cm-1:             0.120458             0.037933             0.034956
Rotational constants in MHz :          3611.251859          1137.213621          1047.960697

                             ****ORCA TERMINATED NORMALLY****
TOTAL RUN TIME: 0 days 0 hours 0 minutes 10 seconds 987 msec
