                         Program Version 6.0.0  -   RELEASE  -
|  1> ! pbe def2-sv(p) def2/J RI DEFGRID1 loosescf d4 GCP(DFT/SV(P)) printgap
|  2> %output
|  3>     printlevel normal
|  4> end
|  5> * xyz 0 1
|  6> C -3.6817648413 -0.675534611 0.2969874713
|  7> C -2.4757831696 0.1468042896 -0.1382696244
|  8> C -1.1669245351 -0.5291115055 0.2604510923
|  9> C 0.0404499291 0.2513919928 -0.1860969909
| 10> O 0.0186413488 1.2645014904 -0.8536293061
| 11> O 1.1657836417 -0.3102869459 0.2404623378
| 12> C 2.406552253 0.3222313534 -0.1181876748
| 13> C 3.5389907028 -0.4767176758 0.496790163
| 14> H -3.6862309184 -0.8031909131 1.376536269
| 15> H -4.6021383514 -0.1774629914 0.0053661913
| 16> H -3.6602328254 -1.6584314243 -0.1669074647
| 17> H -2.5169064419 1.1391757676 0.3143862859
| 18> H -2.4878475948 0.2863912878 -1.2207273947
| 19> H -1.0977282087 -1.5245414982 -0.1834803962
| 20> H -1.1045441147 -0.6532327527 1.3430032825
| 21> H 2.4756962792 0.3523464584 -1.2105861554
| 22> H 2.3879276245 1.3533834825 0.2497910465
| 23> H 3.4358260324 -0.4966181292 1.5775700805
| 24> H 3.51889812 -1.4965396561 0.1244058094
| 25> H 4.4861939995 -0.0171383557 0.2348154129
| 26> *
| 27>
| 28>                          ****END OF INPUT****

CARTESIAN COORDINATES (ANGSTROEM)
---------------------------------
  C     -3.681765   -0.675535    0.296987
  C     -2.475783    0.146804   -0.138270
  C     -1.166925   -0.529112    0.260451
  C      0.040450    0.251392   -0.186097
  O      0.018641    1.264501   -0.853629
  O      1.165784   -0.310287    0.240462
  C      2.406552    0.322231   -0.118188
  C      3.538991   -0.476718    0.496790
  H     -3.686231   -0.803191    1.376536
  H     -4.602138   -0.177463    0.005366
  H     -3.660233   -1.658431   -0.166907
  H     -2.516906    1.139176    0.314386
  H     -2.487848    0.286391   -1.220727
  H     -1.097728   -1.524541   -0.183480
  H     -1.104544   -0.653233    1.343003
  H      2.475696    0.352346   -1.210586
  H      2.387928    1.353383    0.249791
  H      3.435826   -0.496618    1.577570
  H      3.518898   -1.496540    0.124406
  H      4.486194   -0.017138    0.234815

 Total Charge           Charge          ....    0
 Multiplicity           Mult            ....    1
 Number of Electrons    NEL             ....   64
 Basis Dimension        Dim             ....  136

ORBITAL ENERGIES
----------------

  NO   OCC          E(Eh)            E(eV)
   0   2.0000     -18.794830      -511.4333
   1   2.0000     -18.731455      -509.7088
   2   2.0000     -10.003772      -272.2165
   3   2.0000      -9.946197      -270.6498
   4   2.0000      -9.897592      -269.3272
   5   2.0000      -9.888963      -269.0924
   6   2.0000      -9.885568      -269.0000
   7   2.0000      -9.876135      -268.7433
   8   2.0000      -1.002670       -27.2840
   9   2.0000      -0.907280       -24.6883
  10   2.0000      -0.725459       -19.7407
  11   2.0000      -0.699883       -19.0448
  12   2.0000      -0.638959       -17.3870
  13   2.0000      -0.579673       -15.7737
  14   2.0000      -0.528250       -14.3744
  15   2.0000      -0.501429       -13.6446
  16   2.0000      -0.449906       -12.2426
  17   2.0000      -0.442394       -12.0381
  18   2.0000      -0.422851       -11.5064
  19   2.0000      -0.403364       -10.9761
  20   2.0000      -0.378203       -10.2914
  21   2.0000      -0.371141       -10.0993
  22   2.0000      -0.359463        -9.7815
  23   2.0000      -0.353375        -9.6158
  24   2.0000      -0.341552        -9.2941
  25   2.0000      -0.315053        -8.5730
  26   2.0000      -0.312020        -8.4905
  27   2.0000      -0.300367        -8.1734
  28   2.0000      -0.292911        -7.9705
  29   2.0000      -0.291335        -7.9276
  30   2.0000      -0.254791        -6.9332
  31   2.0000      -0.216600        -5.8940
  32   0.0000      -0.016773        -0.4564
  33   0.0000       0.035563         0.9677
  34   0.0000       0.048281         1.3138
  35   0.0000       0.080403         2.1879
  36   0.0000       0.081091         2.2066

MULLIKEN ATOMIC CHARGES
-----------------------
   0 C :   -0.252323
   1 C :   -0.197603
   2 C :   -0.180916
   3 C :    0.132195
   4 O :   -0.213167
   5 O :   -0.244652
   6 C :   -0.027709
   7 C :   -0.270052
   8 H :    0.095235
   9 H :    0.105311
  10 H :    0.095383
  11 H :    0.097366
  12 H :    0.099873
  13 H :    0.108840
  14 H :    0.106976
  15 H :    0.103439
  16 H :    0.104094
  17 H :    0.113736
  18 H :    0.113690
  19 H :    0.110286
Sum of atomic charges:   -0.0000000

LOEWDIN ATOMIC CHARGES
----------------------
   0 C :   -0.339576
   1 C :   -0.230352
   2 C :   -0.251586
   3 C :    0.036776
   4 O :   -0.165935
   5 O :   -0.076678
   6 C :   -0.107693
   7 C :   -0.350664
   8 H :    0.116234
   9 H :    0.120979
  10 H :    0.116349
  11 H :    0.121409
  12 H :    0.122380
  13 H :    0.138830
  14 H :    0.136966
  15 H :    0.115094
  16 H :    0.115363
  17 H :    0.126100
  18 H :    0.126104
  19 H :    0.129900

  Mayer bond orders larger than 0.100000
B(  0-C ,  1-C ) :   1.1535 B(  0-C ,  8-H ) :   0.9531 B(  0-C ,  9-H ) :   0.9541
B(  0-C , 10-H ) :   0.9534 B(  1-C ,  2-C ) :   1.1334 B(  1-C , 11-H ) :   0.9288
B(  1-C , 12-H ) :   0.9260 B(  2-C ,  3-C ) :   1.0255 B(  2-C , 13-H ) :   0.8960
B(  2-C , 14-H ) :   0.8995 B(  3-C ,  4-O ) :   2.0446 B(  3-C ,  5-O ) :   1.2114
B(  5-O ,  6-C ) :   0.9136 B(  6-C ,  7-C ) :   1.1501 B(  6-C , 15-H ) :   0.9328
B(  6-C , 16-H ) :   0.9321 B(  7-C , 17-H ) :   0.9501 B(  7-C , 18-H ) :   0.9498
B(  7-C , 19-H ) :   0.9445

Dispersion correction           -0.014189635
FINAL SINGLE POINT ENERGY      -385.458577900145

DIPOLE MOMENT
-------------

Method             : SCF
Type of density    : Electron Density
Multiplicity       :   1
Irrep              :   0
Energy             :  -385.5338021062834173 Eh
Relativity type    :
Basis              : AO
                                X                 Y                 Z
Electronic contribution:      3.013176211       2.931295360      -1.928956965
Nuclear contribution   :     -2.657231464      -3.453182326       2.283949542
                        -----------------------------------------
Total Dipole Moment    :      0.355944747      -0.521886966       0.354992577
                        -----------------------------------------
Magnitude (a.u.)       :      0.724625695
Magnitude (Debye)      :      1.841852143

Rotational constants in cm-1:             0.211328             0.027028             0.024515
Rotational constants in MHz :          6335.464884           810.269048           734.936451

                             ****ORCA TERMINATED NORMALLY****
TOTAL RUN TIME: 0 days 0 hours 0 minutes 10 seconds 420 msec
