                         Program Version 6.0.0  -   RELEASE  -
|  1> ! r2scan-3c def2/J RI DEFGRID2 scfconv6 printgap
|  2> %output
|  3>     printlevel normal
|  4> end
|  5> * xyz 0 1
|  6> C -3.3283640603 -1.0988697964 0.2640515634
|  7> C -1.9455588053 -0.7413128257 -0.2652616693
|  8> C -1.3521591739 0.4534276475 0.4964411068
|  9> C -0.0011212679 0.7874024703 -0.0751057058
| 10> O 0.2105179062 1.6528657172 -0.9010402589
| 11> O 0.9423370513 -0.0104042388 0.402112753
| 12> C 2.2816109735 0.1400077058 -0.0993884111
| 13> C 3.0504424156 -1.1322063558 0.2025557291
| 14> H -4.0092552637 -0.2594775056 0.1492543423
| 15> H -3.730442619 -1.9466337726 -0.2837525435
| 16> H -3.2764260072 -1.3603250661 1.3176119246
| 17> H -2.0090297251 -0.4904854874 -1.3262589436
| 18> H -1.2762328349 -1.5965710414 -0.1581653768
| 19> H -1.2394259316 0.1946479664 1.5485434316
| 20> H -2.0008835863 1.3221882776 0.3892115079
| 21> H 2.2291738836 0.3436695294 -1.1739121451
| 22> H 2.7322559487 1.007191707 0.3938246981
| 23> H 3.0531580609 -1.3176403049 1.2724368206
| 24> H 2.588622784 -1.9778222581 -0.2986646872
| 25> H 4.0721871075 -1.024880811 -0.1461592297
| 26> *
| 27>
| 28>                          ****END OF INPUT****

CARTESIAN COORDINATES (ANGSTROEM)
---------------------------------
  C     -3.328364   -1.098870    0.264052
  C     -1.945559   -0.741313   -0.265262
  C     -1.352159    0.453428    0.496441
  C     -0.001121    0.787402   -0.075106
  O      0.210518    1.652866   -0.901040
  O      0.942337   -0.010404    0.402113
  C      2.281611    0.140008   -0.099388
  C      3.050442   -1.132206    0.202556
  H     -4.009255   -0.259478    0.149254
  H     -3.730443   -1.946634   -0.283753
  H     -3.276426   -1.360325    1.317612
  H     -2.009030   -0.490485   -1.326259
  H     -1.276233   -1.596571   -0.158165
  H     -1.239426    0.194648    1.548543
  H     -2.000884    1.322188    0.389212
  H      2.229174    0.343670   -1.173912
  H      2.732256    1.007192    0.393825
  H      3.053158   -1.317640    1.272437
  H      2.588623   -1.977822   -0.298665
  H      4.072187   -1.024881   -0.146159

 Total Charge           Charge          ....    0
 Multiplicity           Mult            ....    1
 Number of Electrons    NEL             ....   64
 Basis Dimension        Dim             ....  222

ORBITAL ENERGIES
----------------

  NO   OCC          E(Eh)            E(eV)
   0   2.0000     -18.995614      -516.8969
   1   2.0000     -18.924824      -514.9706
   2   2.0000     -10.149217      -276.1742
   3   2.0000     -10.090878      -274.5868
   4   2.0000     -10.040172      -273.2070
   5   2.0000     -10.038780      -273.1691
   6   2.0000     -10.032181      -272.9895
   7   2.0000     -10.023682      -272.7582
   8   2.0000      -1.070597       -29.1324
   9   2.0000      -0.972042       -26.4506
  10   2.0000      -0.775802       -21.1106
  11   2.0000      -0.743000       -20.2180
  12   2.0000      -0.681200       -18.5364
  13   2.0000      -0.614170       -16.7124
  14   2.0000      -0.568707       -15.4753
  15   2.0000      -0.533582       -14.5195
  16   2.0000      -0.464342       -12.6354
  17   2.0000      -0.461960       -12.5706
  18   2.0000      -0.445940       -12.1346
  19   2.0000      -0.422803       -11.5050
  20   2.0000      -0.406532       -11.0623
  21   2.0000      -0.379838       -10.3359
  22   2.0000      -0.376401       -10.2424
  23   2.0000      -0.369366       -10.0510
  24   2.0000      -0.359099        -9.7716
  25   2.0000      -0.334082        -9.0908
  26   2.0000      -0.332076        -9.0362
  27   2.0000      -0.315986        -8.5984
  28   2.0000      -0.310252        -8.4424
  29   2.0000      -0.305840        -8.3223
  30   2.0000      -0.269379        -7.3302
  31   2.0000      -0.230359        -6.2684
  32   0.0000      -0.012998        -0.3537
  33   0.0000       0.075400         2.0517
  34   0.0000       0.094520         2.5720
  35   0.0000       0.104772         2.8510
  36   0.0000       0.120315         3.2739

MULLIKEN ATOMIC CHARGES
-----------------------
   0 C :   -0.474623
   1 C :   -0.231894
   2 C :   -0.342443
   3 C :    0.412060
   4 O :   -0.427916
   5 O :   -0.173601
   6 C :   -0.148616
   7 C :   -0.442595
   8 H :    0.146703
   9 H :    0.150543
  10 H :    0.144569
  11 H :    0.152128
  12 H :    0.149636
  13 H :    0.154881
  14 H :    0.163186
  15 H :    0.168812
  16 H :    0.148050
  17 H :    0.152110
  18 H :    0.151657
  19 H :    0.147352
Sum of atomic charges:    0.0000000

LOEWDIN ATOMIC CHARGES
----------------------
   0 C :   -0.419660
   1 C :   -0.288095
   2 C :   -0.229937
   3 C :    0.354287
   4 O :   -0.429343
   5 O :   -0.599602
   6 C :    0.033701
   7 C :   -0.387301
   8 H :    0.151574
   9 H :    0.153022
  10 H :    0.150646
  11 H :    0.159981
  12 H :    0.158971
  13 H :    0.176017
  14 H :    0.176959
  15 H :    0.186166
  16 H :    0.175513
  17 H :    0.159074
  18 H :    0.158524
  19 H :    0.159502

  Mayer bond orders larger than 0.100000
B(  0-C ,  1-C ) :   0.8953 B(  0-C ,  8-H ) :   0.9833 B(  0-C ,  9-H ) :   0.9721
B(  0-C , 10-H ) :   0.9853 B(  1-C ,  2-C ) :   0.9240 B(  1-C , 11-H ) :   0.9585
B(  1-C , 12-H ) :   0.9632 B(  2-C ,  3-C ) :   0.9650 B(  2-C , 13-H ) :   0.9792
B(  2-C , 14-H ) :   0.9810 B(  3-C ,  4-O ) :   1.8319 B(  3-C ,  5-O ) :   1.0432
B(  5-O ,  6-C ) :   0.8017 B(  6-C ,  7-C ) :   0.9423 B(  6-C , 15-H ) :   0.9607
B(  6-C , 16-H ) :   0.9482 B(  7-C , 17-H ) :   0.9691 B(  7-C , 18-H ) :   0.9742
B(  7-C , 19-H ) :   0.9686

Dispersion correction           -0.004883656
FINAL SINGLE POINT ENERGY      -386.235259922971

DIPOLE MOMENT
-------------

Method             : SCF
Type of density    : Electron Density
Multiplicity       :   1
Irrep              :   0
Energy             :  -386.2419829273229652 Eh
Relativity type    :
Basis              : AO
                                X                 Y                 Z
Electronic contribution:      2.828720716       5.862458569      -1.122548612
Nuclear contribution   :     -2.671970778      -6.642388056       1.572446207
                        -----------------------------------------
Total Dipole Moment    :      0.156749937      -0.779929486       0.449897595
                        -----------------------------------------
Magnitude (a.u.)       :      0.913930190
Magnitude (Debye)      :      2.323025930

Rotational constants in cm-1:             0.122837             0.032955             0.027902
Rotational constants in MHz :          3682.558941           987.972995           836.495449

                             ****ORCA TERMINATED NORMALLY****
TOTAL RUN TIME: 0 days 0 hours 0 minutes 30 seconds 366 msec
