                         Program Version 6.0.0  -   RELEASE  -
|  1> ! r2scan-3c def2/J RI DEFGRID2 scfconv6 printgap
|  2> %output
|  3>     printlevel normal
|  4> end
|  5> %cpcm
|  6>     smd true
|  7>     smdsolvent "water"
|  8> end
|  9> * xyz 0 1
| 10> C -3.3283640603 -1.0988697964 0.2640515634
| 11> C -1.9455588053 -0.7413128257 -0.2652616693
| 12> C -1.3521591739 0.4534276475 0.4964411068
| 13> C -0.0011212679 0.7874024703 -0.0751057058
| 14> O 0.2105179062 1.6528657172 -0.9010402589
| 15> O 0.9423370513 -0.0104042388 0.402112753
| 16> C 2.2816109735 0.1400077058 -0.0993884111
| 17> C 3.0504424156 -1.1322063558 0.2025557291
| 18> H -4.0092552637 -0.2594775056 0.1492543423
| 19> H -3.730442619 -1.9466337726 -0.2837525435
| 20> H -3.2764260072 -1.3603250661 1.3176119246
| 21> H -2.0090297251 -0.4904854874 -1.3262589436
| 22> H -1.2762328349 -1.5965710414 -0.1581653768
| 23> H -1.2394259316 0.1946479664 1.5485434316
| 24> H -2.0008835863 1.3221882776 0.3892115079
| 25> H 2.2291738836 0.3436695294 -1.1739121451
| 26> H 2.7322559487 1.007191707 0.3938246981
| 27> H 3.0531580609 -1.3176403049 1.2724368206
| 28> H 2.588622784 -1.9778222581 -0.2986646872
| 29> H 4.0721871075 -1.024880811 -0.1461592297
| 30> *
| 31>
| 32>                          ****END OF INPUT****

CARTESIAN COORDINATES (ANGSTROEM)
---------------------------------
  C     -3.328364   -1.098870    0.264052
  C     -1.945559   -0.741313   -0.265262
  C     -1.352159    0.453428    0.496441
  C     -0.001121    0.787402   -0.075106
  O      0.210518    1.652866   -0.901040
  O      0.942337   -0.010404    0.402113
  C      2.281611    0.140008   -0.099388
  C      3.050442   -1.132206    0.202556
  H     -4.009255   -0.259478    0.149254
  H     -3.730443   -1.946634   -0.283753
  H     -3.276426   -1.360325    1.317612
  H     -2.009030   -0.490485   -1.326259
  H     -1.276233   -1.596571   -0.158165
  H     -1.239426    0.194648    1.548543
  H     -2.000884    1.322188    0.389212
  H      2.229174    0.343670   -1.173912
  H      2.732256    1.007192    0.393825
  H      3.053158   -1.317640    1.272437
  H      2.588623   -1.977822   -0.298665
  H      4.072187   -1.024881   -0.146159

 Total Charge           Charge          ....    0
 Multiplicity           Mult            ....    1
 Number of Electrons    NEL             ....   64
 Basis Dimension        Dim             ....  222

ORBITAL ENERGIES
----------------

  NO   OCC          E(Eh)            E(eV)
   0   2.0000     -19.002169      -517.0753
   1   2.0000     -18.942647      -515.4556
   2   2.0000     -10.161331      -276.5039
   3   2.0000     -10.083663      -274.3904
   4   2.0000     -10.034859      -273.0624
   5   2.0000     -10.030234      -272.9366
   6   2.0000     -10.018764      -272.6244
   7   2.0000     -10.011918      -272.4381
   8   2.0000      -1.079014       -29.3615
   9   2.0000      -0.987583       -26.8735
  10   2.0000      -0.770416       -20.9641
  11   2.0000      -0.734835       -19.9959
  12   2.0000      -0.674039       -18.3415
  13   2.0000      -0.607398       -16.5281
  14   2.0000      -0.560636       -15.2557
  15   2.0000      -0.532465       -14.4891
  16   2.0000      -0.468322       -12.7437
  17   2.0000      -0.459409       -12.5012
  18   2.0000      -0.449067       -12.2197
  19   2.0000      -0.425628       -11.5819
  20   2.0000      -0.402180       -10.9439
  21   2.0000      -0.376614       -10.2482
  22   2.0000      -0.365349        -9.9416
  23   2.0000      -0.363702        -9.8968
  24   2.0000      -0.350567        -9.5394
  25   2.0000      -0.329410        -8.9637
  26   2.0000      -0.326522        -8.8851
  27   2.0000      -0.313039        -8.5182
  28   2.0000      -0.304122        -8.2756
  29   2.0000      -0.300718        -8.1829
  30   2.0000      -0.275979        -7.5098
  31   2.0000      -0.247889        -6.7454
  32   0.0000      -0.022559        -0.6139
  33   0.0000       0.078232         2.1288
  34   0.0000       0.103962         2.8290
  35   0.0000       0.115507         3.1431
  36   0.0000       0.127297         3.4639

MULLIKEN ATOMIC CHARGES
-----------------------
   0 C :   -0.518695
   1 C :   -0.218252
   2 C :   -0.368036
   3 C :    0.455587
   4 O :   -0.516284
   5 O :   -0.188825
   6 C :   -0.148236
   7 C :   -0.489219
   8 H :    0.159128
   9 H :    0.162352
  10 H :    0.158890
  11 H :    0.157133
  12 H :    0.158003
  13 H :    0.178267
  14 H :    0.175727
  15 H :    0.171591
  16 H :    0.172046
  17 H :    0.164297
  18 H :    0.165550
  19 H :    0.168975
Sum of atomic charges:    0.0000000

LOEWDIN ATOMIC CHARGES
----------------------
   0 C :   -0.424898
   1 C :   -0.285430
   2 C :   -0.228077
   3 C :    0.363591
   4 O :   -0.493014
   5 O :   -0.600064
   6 C :    0.036575
   7 C :   -0.390105
   8 H :    0.154844
   9 H :    0.156394
  10 H :    0.154815
  11 H :    0.161358
  12 H :    0.161941
  13 H :    0.186046
  14 H :    0.181716
  15 H :    0.187826
  16 H :    0.183657
  17 H :    0.162509
  18 H :    0.162099
  19 H :    0.168215

  Mayer bond orders larger than 0.100000
B(  0-C ,  1-C ) :   0.8874 B(  0-C ,  8-H ) :   0.9811 B(  0-C ,  9-H ) :   0.9688
B(  0-C , 10-H ) :   0.9823 B(  1-C ,  2-C ) :   0.9149 B(  1-C , 11-H ) :   0.9575
B(  1-C , 12-H ) :   0.9599 B(  2-C ,  3-C ) :   0.9603 B(  2-C , 13-H ) :   0.9671
B(  2-C , 14-H ) :   0.9806 B(  3-C ,  4-O ) :   1.7589 B(  3-C ,  5-O ) :   1.0735
B(  5-O ,  6-C ) :   0.7886 B(  6-C ,  7-C ) :   0.9425 B(  6-C , 15-H ) :   0.9554
B(  6-C , 16-H ) :   0.9391 B(  7-C , 17-H ) :   0.9663 B(  7-C , 18-H ) :   0.9724
B(  7-C , 19-H ) :   0.9621

Dispersion correction           -0.004883656
FINAL SINGLE POINT ENERGY      -386.240853744532

DIPOLE MOMENT
-------------

Method             : SCF
Type of density    : Electron Density
Multiplicity       :   1
Irrep              :   0
Energy             :  -386.2475767488838869 Eh
Relativity type    :
Basis              : AO
                                X                 Y                 Z
Electronic contribution:      2.869393187       5.587591632      -0.914505785
Nuclear contribution   :     -2.671970778      -6.642388056       1.572446207
                        -----------------------------------------
Total Dipole Moment    :      0.197422409      -1.054796424       0.657940422
                        -----------------------------------------
Magnitude (a.u.)       :      1.258752041
Magnitude (Debye)      :      3.199493421

Rotational constants in cm-1:             0.122837             0.032955             0.027902
Rotational constants in MHz :          3682.558941           987.972995           836.495449

                             ****ORCA TERMINATED NORMALLY****
TOTAL RUN TIME: 0 days 0 hours 0 minutes 36 seconds 625 msec
