                         Program Version 6.0.0  -   RELEASE  -
|  1> ! r2scan-3c def2/J RI DEFGRID2 scfconv6 printgap
|  2> %output
|  3>     printlevel normal
|  4> end
|  5> * xyz 0 1
|  6> C -2.3354078935 -1.2112612595 -0.608264917
|  7> C -2.0062404186 -0.5606351956 0.7298106486
|  8> C -1.4381455975 0.8521032116 0.5487687355
|  9> C -0.1166417201 0.8264361315 -0.1757549988
| 10> O 0.107300203 1.3883697945 -1.2295176611
| 11> O 0.7890547626 0.1128306967 0.4758766481
| 12> C 2.0982205362 -0.0256420816 -0.0998184775
| 13> C 2.7302401431 -1.2936270054 0.4431140537
| 14> H -3.0770195196 -0.6248120149 -1.1456749324
| 15> H -1.4456072857 -1.2800165738 -1.2316333657
| 16> H -2.7289987919 -2.2128785417 -0.45751693
| 17> H -1.2774912014 -1.167881339 1.2679486142
| 18> H -2.9112972243 -0.4953457687 1.3344915596
| 19> H -1.2712271211 1.3039080775 1.527364393
| 20> H -2.1253443208 1.47389168 -0.025003732
| 21> H 1.9988370036 -0.0503202531 -1.1900102955
| 22> H 2.6813436752 0.8592511863 0.174278821
| 23> H 2.1437281643 -2.1607431522 0.1531504313
| 24> H 3.7343494089 -1.3927716573 0.0442538344
| 25> H 2.7768971628 -1.2482672203 1.5270469949
| 26> *
| 27>
| 28>                          ****END OF INPUT****

CARTESIAN COORDINATES (ANGSTROEM)
---------------------------------
  C     -2.335408   -1.211261   -0.608265
  C     -2.006240   -0.560635    0.729811
  C     -1.438146    0.852103    0.548769
  C     -0.116642    0.826436   -0.175755
  O      0.107300    1.388370   -1.229518
  O      0.789055    0.112831    0.475877
  C      2.098221   -0.025642   -0.099818
  C      2.730240   -1.293627    0.443114
  H     -3.077020   -0.624812   -1.145675
  H     -1.445607   -1.280017   -1.231633
  H     -2.728999   -2.212879   -0.457517
  H     -1.277491   -1.167881    1.267949
  H     -2.911297   -0.495346    1.334492
  H     -1.271227    1.303908    1.527364
  H     -2.125344    1.473892   -0.025004
  H      1.998837   -0.050320   -1.190010
  H      2.681344    0.859251    0.174279
  H      2.143728   -2.160743    0.153150
  H      3.734349   -1.392772    0.044254
  H      2.776897   -1.248267    1.527047

 Total Charge           Charge          ....    0
 Multiplicity           Mult            ....    1
 Number of Electrons    NEL             ....   64
 Basis Dimension        Dim             ....  222

ORBITAL ENERGIES
----------------

  NO   OCC          E(Eh)            E(eV)
   0   2.0000     -18.996556      -516.9226
   1   2.0000     -18.925745      -514.9957
   2   2.0000     -10.150347      -276.2050
   3   2.0000     -10.091589      -274.6061
   4   2.0000     -10.040640      -273.2197
   5   2.0000     -10.036330      -273.1024
   6   2.0000     -10.032725      -273.0043
   7   2.0000     -10.020149      -272.6621
   8   2.0000      -1.071706       -29.1626
   9   2.0000      -0.972918       -26.4745
  10   2.0000      -0.776147       -21.1200
  11   2.0000      -0.741781       -20.1849
  12   2.0000      -0.677796       -18.4438
  13   2.0000      -0.617085       -16.7917
  14   2.0000      -0.570213       -15.5163
  15   2.0000      -0.532935       -14.5019
  16   2.0000      -0.466573       -12.6961
  17   2.0000      -0.461080       -12.5466
  18   2.0000      -0.437699       -11.9104
  19   2.0000      -0.424652       -11.5554
  20   2.0000      -0.407207       -11.0807
  21   2.0000      -0.385047       -10.4777
  22   2.0000      -0.376675       -10.2498
  23   2.0000      -0.370275       -10.0757
  24   2.0000      -0.354416        -9.6441
  25   2.0000      -0.337626        -9.1873
  26   2.0000      -0.325552        -8.8587
  27   2.0000      -0.312378        -8.5002
  28   2.0000      -0.311390        -8.4733
  29   2.0000      -0.306802        -8.3485
  30   2.0000      -0.270755        -7.3676
  31   2.0000      -0.230274        -6.2661
  32   0.0000      -0.014033        -0.3818
  33   0.0000       0.071510         1.9459
  34   0.0000       0.093942         2.5563
  35   0.0000       0.113471         3.0877
  36   0.0000       0.117718         3.2033

MULLIKEN ATOMIC CHARGES
-----------------------
   0 C :   -0.481788
   1 C :   -0.222028
   2 C :   -0.320517
   3 C :    0.353199
   4 O :   -0.424083
   5 O :   -0.162136
   6 C :   -0.147954
   7 C :   -0.443579
   8 H :    0.149198
   9 H :    0.153822
  10 H :    0.147417
  11 H :    0.151277
  12 H :    0.145228
  13 H :    0.159269
  14 H :    0.170106
  15 H :    0.173827
  16 H :    0.146674
  17 H :    0.151918
  18 H :    0.147468
  19 H :    0.152681
Sum of atomic charges:    0.0000000

LOEWDIN ATOMIC CHARGES
----------------------
   0 C :   -0.414912
   1 C :   -0.293913
   2 C :   -0.230846
   3 C :    0.350903
   4 O :   -0.430132
   5 O :   -0.602627
   6 C :    0.033515
   7 C :   -0.387429
   8 H :    0.153378
   9 H :    0.155603
  10 H :    0.151767
  11 H :    0.163997
  12 H :    0.153024
  13 H :    0.179456
  14 H :    0.177624
  15 H :    0.188458
  16 H :    0.175131
  17 H :    0.158381
  18 H :    0.159607
  19 H :    0.159014

  Mayer bond orders larger than 0.100000
B(  0-C ,  1-C ) :   0.9129 B(  0-C ,  8-H ) :   0.9783 B(  0-C ,  9-H ) :   0.9708
B(  0-C , 10-H ) :   0.9703 B(  1-C ,  2-C ) :   0.8846 B(  1-C , 11-H ) :   0.9710
B(  1-C , 12-H ) :   0.9645 B(  2-C ,  3-C ) :   0.9596 B(  2-C , 13-H ) :   0.9457
B(  2-C , 14-H ) :   1.0059 B(  3-C ,  4-O ) :   1.8380 B(  3-C ,  5-O ) :   1.0522
B(  5-O ,  6-C ) :   0.7943 B(  6-C ,  7-C ) :   0.9437 B(  6-C , 15-H ) :   0.9642
B(  6-C , 16-H ) :   0.9471 B(  7-C , 17-H ) :   0.9744 B(  7-C , 18-H ) :   0.9680
B(  7-C , 19-H ) :   0.9688

Dispersion correction           -0.005148336
FINAL SINGLE POINT ENERGY      -386.235370422510

DIPOLE MOMENT
-------------

Method             : SCF
Type of density    : Electron Density
Multiplicity       :   1
Irrep              :   0
Energy             :  -386.2419145914540195 Eh
Relativity type    :
Basis              : AO
                                X                 Y                 Z
Electronic contribution:      1.560738373       5.937009632      -1.160670647
Nuclear contribution   :     -1.395675639      -6.541140643       1.845171010
                        -----------------------------------------
Total Dipole Moment    :      0.165062734      -0.604131011       0.684500363
                        -----------------------------------------
Magnitude (a.u.)       :      0.927771917
Magnitude (Debye)      :      2.358208804

Rotational constants in cm-1:             0.100341             0.040757             0.034742
Rotational constants in MHz :          3008.157765          1221.861417          1041.541765

                             ****ORCA TERMINATED NORMALLY****
TOTAL RUN TIME: 0 days 0 hours 0 minutes 31 seconds 331 msec
