                         Program Version 6.0.0  -   RELEASE  -
|  1> ! r2scan-3c def2/J RI DEFGRID2 scfconv6 printgap
|  2> %output
|  3>     printlevel normal
|  4> end
|  5> %cpcm
|  6>     smd true
|  7>     smdsolvent "water"
|  8> end
|  9> * xyz 0 1
| 10> C -2.3354078935 -1.2112612595 -0.608264917
| 11> C -2.0062404186 -0.5606351956 0.7298106486
| 12> C -1.4381455975 0.8521032116 0.5487687355
| 13> C -0.1166417201 0.8264361315 -0.1757549988
| 14> O 0.107300203 1.3883697945 -1.2295176611
| 15> O 0.7890547626 0.1128306967 0.4758766481
| 16> C 2.0982205362 -0.0256420816 -0.0998184775
| 17> C 2.7302401431 -1.2936270054 0.4431140537
| 18> H -3.0770195196 -0.6248120149 -1.1456749324
| 19> H -1.4456072857 -1.2800165738 -1.2316333657
| 20> H -2.7289987919 -2.2128785417 -0.45751693
| 21> H -1.2774912014 -1.167881339 1.2679486142
| 22> H -2.9112972243 -0.4953457687 1.3344915596
| 23> H -1.2712271211 1.3039080775 1.527364393
| 24> H -2.1253443208 1.47389168 -0.025003732
| 25> H 1.9988370036 -0.0503202531 -1.1900102955
| 26> H 2.6813436752 0.8592511863 0.174278821
| 27> H 2.1437281643 -2.1607431522 0.1531504313
| 28> H 3.7343494089 -1.3927716573 0.0442538344
| 29> H 2.7768971628 -1.2482672203 1.5270469949
| 30> *
| 31>
| 32>                          ****END OF INPUT****

CARTESIAN COORDINATES (ANGSTROEM)
---------------------------------
  C     -2.335408   -1.211261   -0.608265
  C     -2.006240   -0.560635    0.729811
  C     -1.438146    0.852103    0.548769
  C     -0.116642    0.826436   -0.175755
  O      0.107300    1.388370   -1.229518
  O      0.789055    0.112831    0.475877
  C      2.098221   -0.025642   -0.099818
  C      2.730240   -1.293627    0.443114
  H     -3.077020   -0.624812   -1.145675
  H     -1.445607   -1.280017   -1.231633
  H     -2.728999   -2.212879   -0.457517
  H     -1.277491   -1.167881    1.267949
  H     -2.911297   -0.495346    1.334492
  H     -1.271227    1.303908    1.527364
  H     -2.125344    1.473892   -0.025004
  H      1.998837   -0.050320   -1.190010
  H      2.681344    0.859251    0.174279
  H      2.143728   -2.160743    0.153150
  H      3.734349   -1.392772    0.044254
  H      2.776897   -1.248267    1.527047

 Total Charge           Charge          ....    0
 Multiplicity           Mult            ....    1
 Number of Electrons    NEL             ....   64
 Basis Dimension        Dim             ....  222

ORBITAL ENERGIES
----------------

  NO   OCC          E(Eh)            E(eV)
   0   2.0000     -19.002153      -517.0749
   1   2.0000     -18.942975      -515.4646
   2   2.0000     -10.161979      -276.5215
   3   2.0000     -10.083641      -274.3898
   4   2.0000     -10.035462      -273.0788
   5   2.0000     -10.028273      -272.8832
   6   2.0000     -10.018694      -272.6225
   7   2.0000     -10.011701      -272.4322
   8   2.0000      -1.079267       -29.3683
   9   2.0000      -0.987847       -26.8807
  10   2.0000      -0.771292       -20.9879
  11   2.0000      -0.733408       -19.9570
  12   2.0000      -0.671794       -18.2804
  13   2.0000      -0.610189       -16.6041
  14   2.0000      -0.564018       -15.3477
  15   2.0000      -0.531050       -14.4506
  16   2.0000      -0.466000       -12.6805
  17   2.0000      -0.458406       -12.4739
  18   2.0000      -0.451979       -12.2990
  19   2.0000      -0.419402       -11.4125
  20   2.0000      -0.401997       -10.9389
  21   2.0000      -0.382001       -10.3948
  22   2.0000      -0.369423       -10.0525
  23   2.0000      -0.363470        -9.8905
  24   2.0000      -0.349391        -9.5074
  25   2.0000      -0.332235        -9.0406
  26   2.0000      -0.319115        -8.6836
  27   2.0000      -0.311146        -8.4667
  28   2.0000      -0.306699        -8.3457
  29   2.0000      -0.300991        -8.1904
  30   2.0000      -0.276697        -7.5293
  31   2.0000      -0.247112        -6.7243
  32   0.0000      -0.023057        -0.6274
  33   0.0000       0.076165         2.0726
  34   0.0000       0.103444         2.8149
  35   0.0000       0.120288         3.2732
  36   0.0000       0.124907         3.3989

MULLIKEN ATOMIC CHARGES
-----------------------
   0 C :   -0.527895
   1 C :   -0.216350
   2 C :   -0.340319
   3 C :    0.394316
   4 O :   -0.514630
   5 O :   -0.176228
   6 C :   -0.145847
   7 C :   -0.489538
   8 H :    0.162762
   9 H :    0.161421
  10 H :    0.161686
  11 H :    0.154474
  12 H :    0.162788
  13 H :    0.189140
  14 H :    0.179295
  15 H :    0.174090
  16 H :    0.171703
  17 H :    0.165668
  18 H :    0.168711
  19 H :    0.164753
Sum of atomic charges:    0.0000000

LOEWDIN ATOMIC CHARGES
----------------------
   0 C :   -0.422940
   1 C :   -0.290412
   2 C :   -0.228946
   3 C :    0.360349
   4 O :   -0.494286
   5 O :   -0.601964
   6 C :    0.036830
   7 C :   -0.390240
   8 H :    0.156085
   9 H :    0.155914
  10 H :    0.156451
  11 H :    0.164800
  12 H :    0.160073
  13 H :    0.191253
  14 H :    0.181339
  15 H :    0.189380
  16 H :    0.183832
  17 H :    0.161909
  18 H :    0.168120
  19 H :    0.162455

  Mayer bond orders larger than 0.100000
B(  0-C ,  1-C ) :   0.8985 B(  0-C ,  8-H ) :   0.9774 B(  0-C ,  9-H ) :   0.9689
B(  0-C , 10-H ) :   0.9661 B(  1-C ,  2-C ) :   0.8760 B(  1-C , 11-H ) :   0.9706
B(  1-C , 12-H ) :   0.9613 B(  2-C ,  3-C ) :   0.9587 B(  2-C , 13-H ) :   0.9354
B(  2-C , 14-H ) :   1.0016 B(  3-C ,  4-O ) :   1.7621 B(  3-C ,  5-O ) :   1.0843
B(  5-O ,  6-C ) :   0.7811 B(  6-C ,  7-C ) :   0.9429 B(  6-C , 15-H ) :   0.9590
B(  6-C , 16-H ) :   0.9382 B(  7-C , 17-H ) :   0.9725 B(  7-C , 18-H ) :   0.9617
B(  7-C , 19-H ) :   0.9660

Dispersion correction           -0.005148336
FINAL SINGLE POINT ENERGY      -386.241008436201

DIPOLE MOMENT
-------------

Method             : SCF
Type of density    : Electron Density
Multiplicity       :   1
Irrep              :   0
Energy             :  -386.2475526051447332 Eh
Relativity type    :
Basis              : AO
                                X                 Y                 Z
Electronic contribution:      1.586028473       5.736255247      -0.854722630
Nuclear contribution   :     -1.395675639      -6.541140643       1.845171010
                        -----------------------------------------
Total Dipole Moment    :      0.190352834      -0.804885395       0.990448380
                        -----------------------------------------
Magnitude (a.u.)       :      1.290373084
Magnitude (Debye)      :      3.279867723

Rotational constants in cm-1:             0.100341             0.040757             0.034742
Rotational constants in MHz :          3008.157765          1221.861417          1041.541765

                             ****ORCA TERMINATED NORMALLY****
TOTAL RUN TIME: 0 days 0 hours 0 minutes 37 seconds 693 msec
