                         Program Version 6.0.0  -   RELEASE  -
|  1> ! r2scan-3c def2/J RI DEFGRID2 scfconv6 printgap
|  2> %output
|  3>     printlevel normal
|  4> end
|  5> * xyz 0 1
|  6> C -2.7525632332 -0.2813966553 -0.7985098558
|  7> C -1.880728712 -0.8001419805 0.3397811104
|  8> C -1.2514287093 0.3163037486 1.1745919012
|  9> C -0.3152950085 1.2266593986 0.3680495859
| 10> C 0.7853487213 0.4329655197 -0.2857695638
| 11> O 0.9400388723 0.3198333933 -1.484638306
| 12> O 1.573662419 -0.1368830142 0.6169691591
| 13> C 2.6656231992 -0.949040142 0.1777431009
| 14> H -3.2782145311 -1.1058846716 -1.2737347805
| 15> H -3.4883190075 0.4260097379 -0.4235329557
| 16> H -2.1464726657 0.2096383553 -1.5559539737
| 17> H -2.4886809804 -1.4200325504 1.0019981908
| 18> H -1.0927315391 -1.4341172912 -0.0748506741
| 19> H -0.6828504925 -0.1300731599 1.9919480864
| 20> H -2.0417677141 0.9334538752 1.603971087
| 21> H 0.1437969864 1.9489301292 1.0435831475
| 22> H -0.8616810854 1.7573382115 -0.409771487
| 23> H 2.5616886824 -1.9224951844 0.6528493292
| 24> H 3.5900257887 -0.4699047296 0.4957297238
| 25> H 2.6426844341 -1.0457586559 -0.9083566843
| 26> *
| 27>
| 28>                          ****END OF INPUT****

CARTESIAN COORDINATES (ANGSTROEM)
---------------------------------
  C     -2.752563   -0.281397   -0.798510
  C     -1.880729   -0.800142    0.339781
  C     -1.251429    0.316304    1.174592
  C     -0.315295    1.226659    0.368050
  C      0.785349    0.432966   -0.285770
  O      0.940039    0.319833   -1.484638
  O      1.573662   -0.136883    0.616969
  C      2.665623   -0.949040    0.177743
  H     -3.278215   -1.105885   -1.273735
  H     -3.488319    0.426010   -0.423533
  H     -2.146473    0.209638   -1.555954
  H     -2.488681   -1.420033    1.001998
  H     -1.092732   -1.434117   -0.074851
  H     -0.682850   -0.130073    1.991948
  H     -2.041768    0.933454    1.603971
  H      0.143797    1.948930    1.043583
  H     -0.861681    1.757338   -0.409771
  H      2.561689   -1.922495    0.652849
  H      3.590026   -0.469905    0.495730
  H      2.642684   -1.045759   -0.908357

 Total Charge           Charge          ....    0
 Multiplicity           Mult            ....    1
 Number of Electrons    NEL             ....   64
 Basis Dimension        Dim             ....  222

ORBITAL ENERGIES
----------------

  NO   OCC          E(Eh)            E(eV)
   0   2.0000     -18.999704      -517.0082
   1   2.0000     -18.929081      -515.0865
   2   2.0000     -10.153496      -276.2907
   3   2.0000     -10.085730      -274.4467
   4   2.0000     -10.041208      -273.2351
   5   2.0000     -10.035313      -273.0747
   6   2.0000     -10.027576      -272.8642
   7   2.0000     -10.014290      -272.5027
   8   2.0000      -1.073325       -29.2067
   9   2.0000      -0.976571       -26.5738
  10   2.0000      -0.780219       -21.2308
  11   2.0000      -0.724457       -19.7135
  12   2.0000      -0.683004       -18.5855
  13   2.0000      -0.624195       -16.9852
  14   2.0000      -0.554436       -15.0870
  15   2.0000      -0.528470       -14.3804
  16   2.0000      -0.468288       -12.7428
  17   2.0000      -0.457402       -12.4465
  18   2.0000      -0.443896       -12.0790
  19   2.0000      -0.427592       -11.6354
  20   2.0000      -0.421201       -11.4615
  21   2.0000      -0.387492       -10.5442
  22   2.0000      -0.376316       -10.2401
  23   2.0000      -0.363788        -9.8992
  24   2.0000      -0.354432        -9.6446
  25   2.0000      -0.341298        -9.2872
  26   2.0000      -0.317694        -8.6449
  27   2.0000      -0.304161        -8.2766
  28   2.0000      -0.298987        -8.1358
  29   2.0000      -0.297015        -8.0822
  30   2.0000      -0.272354        -7.4111
  31   2.0000      -0.235371        -6.4048
  32   0.0000      -0.015599        -0.4245
  33   0.0000       0.063020         1.7149
  34   0.0000       0.091420         2.4877
  35   0.0000       0.105633         2.8744
  36   0.0000       0.117826         3.2062

MULLIKEN ATOMIC CHARGES
-----------------------
   0 C :   -0.501123
   1 C :   -0.207222
   2 C :   -0.285385
   3 C :   -0.350102
   4 C :    0.380304
   5 O :   -0.428311
   6 O :   -0.185590
   7 C :   -0.302904
   8 H :    0.146113
   9 H :    0.144489
  10 H :    0.169459
  11 H :    0.142501
  12 H :    0.144124
  13 H :    0.157981
  14 H :    0.151289
  15 H :    0.159418
  16 H :    0.177313
  17 H :    0.148016
  18 H :    0.148622
  19 H :    0.191007
Sum of atomic charges:    0.0000000

LOEWDIN ATOMIC CHARGES
----------------------
   0 C :   -0.423645
   1 C :   -0.310766
   2 C :   -0.288320
   3 C :   -0.229392
   4 C :    0.351450
   5 O :   -0.438563
   6 O :   -0.603912
   7 C :   -0.046438
   8 H :    0.152578
   9 H :    0.149123
  10 H :    0.156991
  11 H :    0.153326
  12 H :    0.157439
  13 H :    0.165453
  14 H :    0.156658
  15 H :    0.180207
  16 H :    0.177807
  17 H :    0.173162
  18 H :    0.173134
  19 H :    0.193706

  Mayer bond orders larger than 0.100000
B(  0-C ,  1-C ) :   0.8953 B(  0-C ,  8-H ) :   0.9680 B(  0-C ,  9-H ) :   0.9837
B(  0-C , 10-H ) :   0.9723 B(  1-C ,  2-C ) :   0.9029 B(  1-C , 11-H ) :   0.9595
B(  1-C , 12-H ) :   0.9639 B(  2-C ,  3-C ) :   0.8725 B(  2-C , 13-H ) :   0.9731
B(  2-C , 14-H ) :   0.9803 B(  3-C ,  4-C ) :   0.9606 B(  3-C , 15-H ) :   0.9440
B(  3-C , 16-H ) :   1.0039 B(  4-C ,  5-O ) :   1.8579 B(  4-C ,  6-O ) :   1.0400
B(  6-O ,  7-C ) :   0.8396 B(  7-C , 17-H ) :   0.9647 B(  7-C , 18-H ) :   0.9642
B(  7-C , 19-H ) :   0.9691

Dispersion correction           -0.005403083
FINAL SINGLE POINT ENERGY      -386.229239539600

DIPOLE MOMENT
-------------

Method             : SCF
Type of density    : Electron Density
Multiplicity       :   1
Irrep              :   0
Energy             :  -386.2359925231880879 Eh
Relativity type    :
Basis              : AO
                                X                 Y                 Z
Electronic contribution:      6.741589549       1.922520173      -1.192246366
Nuclear contribution   :     -6.663602820      -2.110879123       1.998449950
                        -----------------------------------------
Total Dipole Moment    :      0.077986729      -0.188358950       0.806203584
                        -----------------------------------------
Magnitude (a.u.)       :      0.831579968
Magnitude (Debye)      :      2.113708299

Rotational constants in cm-1:             0.115897             0.039336             0.037254
Rotational constants in MHz :          3474.512820          1179.268665          1116.855357

                             ****ORCA TERMINATED NORMALLY****
TOTAL RUN TIME: 0 days 0 hours 0 minutes 26 seconds 303 msec
