                         Program Version 6.0.0  -   RELEASE  -
|  1> ! r2scan-3c def2/J RI DEFGRID2 scfconv6 printgap
|  2> %output
|  3>     printlevel normal
|  4> end
|  5> %cpcm
|  6>     smd true
|  7>     smdsolvent "water"
|  8> end
|  9> * xyz 0 1
| 10> C -2.7525632332 -0.2813966553 -0.7985098558
| 11> C -1.880728712 -0.8001419805 0.3397811104
| 12> C -1.2514287093 0.3163037486 1.1745919012
| 13> C -0.3152950085 1.2266593986 0.3680495859
| 14> C 0.7853487213 0.4329655197 -0.2857695638
| 15> O 0.9400388723 0.3198333933 -1.484638306
| 16> O 1.573662419 -0.1368830142 0.6169691591
| 17> C 2.6656231992 -0.949040142 0.1777431009
| 18> H -3.2782145311 -1.1058846716 -1.2737347805
| 19> H -3.4883190075 0.4260097379 -0.4235329557
| 20> H -2.1464726657 0.2096383553 -1.5559539737
| 21> H -2.4886809804 -1.4200325504 1.0019981908
| 22> H -1.0927315391 -1.4341172912 -0.0748506741
| 23> H -0.6828504925 -0.1300731599 1.9919480864
| 24> H -2.0417677141 0.9334538752 1.603971087
| 25> H 0.1437969864 1.9489301292 1.0435831475
| 26> H -0.8616810854 1.7573382115 -0.409771487
| 27> H 2.5616886824 -1.9224951844 0.6528493292
| 28> H 3.5900257887 -0.4699047296 0.4957297238
| 29> H 2.6426844341 -1.0457586559 -0.9083566843
| 30> *
| 31>
| 32>                          ****END OF INPUT****

CARTESIAN COORDINATES (ANGSTROEM)
---------------------------------
  C     -2.752563   -0.281397   -0.798510
  C     -1.880729   -0.800142    0.339781
  C     -1.251429    0.316304    1.174592
  C     -0.315295    1.226659    0.368050
  C      0.785349    0.432966   -0.285770
  O      0.940039    0.319833   -1.484638
  O      1.573662   -0.136883    0.616969
  C      2.665623   -0.949040    0.177743
  H     -3.278215   -1.105885   -1.273735
  H     -3.488319    0.426010   -0.423533
  H     -2.146473    0.209638   -1.555954
  H     -2.488681   -1.420033    1.001998
  H     -1.092732   -1.434117   -0.074851
  H     -0.682850   -0.130073    1.991948
  H     -2.041768    0.933454    1.603971
  H      0.143797    1.948930    1.043583
  H     -0.861681    1.757338   -0.409771
  H      2.561689   -1.922495    0.652849
  H      3.590026   -0.469905    0.495730
  H      2.642684   -1.045759   -0.908357

 Total Charge           Charge          ....    0
 Multiplicity           Mult            ....    1
 Number of Electrons    NEL             ....   64
 Basis Dimension        Dim             ....  222

ORBITAL ENERGIES
----------------

  NO   OCC          E(Eh)            E(eV)
   0   2.0000     -19.004116      -517.1283
   1   2.0000     -18.943543      -515.4800
   2   2.0000     -10.162915      -276.5470
   3   2.0000     -10.075079      -274.1568
   4   2.0000     -10.035141      -273.0701
   5   2.0000     -10.026817      -272.8436
   6   2.0000     -10.019874      -272.6546
   7   2.0000     -10.008342      -272.3408
   8   2.0000      -1.079180       -29.3660
   9   2.0000      -0.989107       -26.9150
  10   2.0000      -0.774313       -21.0701
  11   2.0000      -0.719716       -19.5845
  12   2.0000      -0.676426       -18.4065
  13   2.0000      -0.618097       -16.8193
  14   2.0000      -0.548833       -14.9345
  15   2.0000      -0.525328       -14.2949
  16   2.0000      -0.466471       -12.6933
  17   2.0000      -0.458593       -12.4789
  18   2.0000      -0.451369       -12.2824
  19   2.0000      -0.422195       -11.4885
  20   2.0000      -0.416586       -11.3359
  21   2.0000      -0.384383       -10.4596
  22   2.0000      -0.373916       -10.1748
  23   2.0000      -0.358076        -9.7437
  24   2.0000      -0.348754        -9.4901
  25   2.0000      -0.339044        -9.2258
  26   2.0000      -0.319121        -8.6837
  27   2.0000      -0.297200        -8.0872
  28   2.0000      -0.293098        -7.9756
  29   2.0000      -0.290164        -7.8958
  30   2.0000      -0.277724        -7.5573
  31   2.0000      -0.249495        -6.7891
  32   0.0000      -0.022853        -0.6219
  33   0.0000       0.068623         1.8673
  34   0.0000       0.098955         2.6927
  35   0.0000       0.114364         3.1120
  36   0.0000       0.122538         3.3344

MULLIKEN ATOMIC CHARGES
-----------------------
   0 C :   -0.529946
   1 C :   -0.227688
   2 C :   -0.286319
   3 C :   -0.368058
   4 C :    0.410574
   5 O :   -0.511671
   6 O :   -0.201095
   7 C :   -0.316662
   8 H :    0.157447
   9 H :    0.159298
  10 H :    0.163612
  11 H :    0.155288
  12 H :    0.151535
  13 H :    0.163086
  14 H :    0.169091
  15 H :    0.188232
  16 H :    0.186953
  17 H :    0.175152
  18 H :    0.175622
  19 H :    0.185550
Sum of atomic charges:   -0.0000000

LOEWDIN ATOMIC CHARGES
----------------------
   0 C :   -0.430980
   1 C :   -0.313017
   2 C :   -0.285862
   3 C :   -0.227955
   4 C :    0.360190
   5 O :   -0.498864
   6 O :   -0.605087
   7 C :   -0.040710
   8 H :    0.154504
   9 H :    0.154320
  10 H :    0.153610
  11 H :    0.157707
  12 H :    0.157842
  13 H :    0.166681
  14 H :    0.163754
  15 H :    0.191220
  16 H :    0.181578
  17 H :    0.184760
  18 H :    0.184098
  19 H :    0.192211

  Mayer bond orders larger than 0.100000
B(  0-C ,  1-C ) :   0.8909 B(  0-C ,  8-H ) :   0.9668 B(  0-C ,  9-H ) :   0.9788
B(  0-C , 10-H ) :   0.9744 B(  1-C ,  2-C ) :   0.8950 B(  1-C , 11-H ) :   0.9576
B(  1-C , 12-H ) :   0.9656 B(  2-C ,  3-C ) :   0.8632 B(  2-C , 13-H ) :   0.9742
B(  2-C , 14-H ) :   0.9758 B(  3-C ,  4-C ) :   0.9583 B(  3-C , 15-H ) :   0.9349
B(  3-C , 16-H ) :   0.9977 B(  4-C ,  5-O ) :   1.7895 B(  4-C ,  6-O ) :   1.0673
B(  6-O ,  7-C ) :   0.8273 B(  7-C , 17-H ) :   0.9554 B(  7-C , 18-H ) :   0.9551
B(  7-C , 19-H ) :   0.9656

Dispersion correction           -0.005403083
FINAL SINGLE POINT ENERGY      -386.233452155467

DIPOLE MOMENT
-------------

Method             : SCF
Type of density    : Electron Density
Multiplicity       :   1
Irrep              :   0
Energy             :  -386.2402051390546376 Eh
Relativity type    :
Basis              : AO
                                X                 Y                 Z
Electronic contribution:      6.750291738       1.898415894      -0.804480573
Nuclear contribution   :     -6.663602820      -2.110879123       1.998449950
                        -----------------------------------------
Total Dipole Moment    :      0.086688918      -0.212463228       1.193969377
                        -----------------------------------------
Magnitude (a.u.)       :      1.215820079
Magnitude (Debye)      :      3.090369045

Rotational constants in cm-1:             0.115897             0.039336             0.037254
Rotational constants in MHz :          3474.512820          1179.268665          1116.855357

                             ****ORCA TERMINATED NORMALLY****
TOTAL RUN TIME: 0 days 0 hours 0 minutes 34 seconds 786 msec
