                         Program Version 6.0.0  -   RELEASE  -
|  1> ! pbe def2-sv(p) def2/J RI DEFGRID1 loosescf d4 GCP(DFT/SV(P)) printgap
|  2> %output
|  3>     printlevel normal
|  4> end
|  5> * xyz 0 1
|  6> C -3.5871495203 -0.7821305744 0.2767426983
|  7> C -2.2909633792 -0.0099218687 0.4846185595
|  8> C -1.2082581221 -0.4618180953 -0.5028061904
|  9> C 0.0287587239 0.3817206937 -0.3465900835
| 10> O 0.0689952665 1.5884052742 -0.4800600582
| 11> O 1.0883149396 -0.3471556549 -0.0287808714
| 12> C 2.3416311838 0.332801218 0.160153139
| 13> C 3.4130138889 -0.7109185309 0.4087219335
| 14> H -4.3367947111 -0.4548451605 0.991799274
| 15> H -3.9722142179 -0.6180048855 -0.7263456211
| 16> H -3.4207922292 -1.8475373404 0.4134674831
| 17> H -1.9319499499 -0.1616743085 1.5044956531
| 18> H -2.4637836511 1.0592776588 0.3469675224
| 19> H -1.5786044205 -0.330757063 -1.5210909572
| 20> H -0.945085631 -1.5063680143 -0.3423050801
| 21> H 2.5499699473 0.9282021624 -0.7348119825
| 22> H 2.2365539977 1.0179550705 1.0076888908
| 23> H 3.4856227462 -1.3798588349 -0.4435940898
| 24> H 4.3671866526 -0.2172548674 0.5598008886
| 25> H 3.1660284139 -1.2934704915 1.2911645033
| 26> *
| 27>
| 28>                          ****END OF INPUT****

CARTESIAN COORDINATES (ANGSTROEM)
---------------------------------
  C     -3.587150   -0.782131    0.276743
  C     -2.290963   -0.009922    0.484619
  C     -1.208258   -0.461818   -0.502806
  C      0.028759    0.381721   -0.346590
  O      0.068995    1.588405   -0.480060
  O      1.088315   -0.347156   -0.028781
  C      2.341631    0.332801    0.160153
  C      3.413014   -0.710919    0.408722
  H     -4.336795   -0.454845    0.991799
  H     -3.972214   -0.618005   -0.726346
  H     -3.420792   -1.847537    0.413467
  H     -1.931950   -0.161674    1.504496
  H     -2.463784    1.059278    0.346968
  H     -1.578604   -0.330757   -1.521091
  H     -0.945086   -1.506368   -0.342305
  H      2.549970    0.928202   -0.734812
  H      2.236554    1.017955    1.007689
  H      3.485623   -1.379859   -0.443594
  H      4.367187   -0.217255    0.559801
  H      3.166028   -1.293470    1.291165

 Total Charge           Charge          ....    0
 Multiplicity           Mult            ....    1
 Number of Electrons    NEL             ....   64
 Basis Dimension        Dim             ....  136

ORBITAL ENERGIES
----------------

  NO   OCC          E(Eh)            E(eV)
   0   2.0000     -18.795933      -511.4633
   1   2.0000     -18.730294      -509.6772
   2   2.0000      -9.999756      -272.1072
   3   2.0000      -9.945127      -270.6207
   4   2.0000      -9.893807      -269.2242
   5   2.0000      -9.891807      -269.1697
   6   2.0000      -9.888368      -269.0762
   7   2.0000      -9.878197      -268.7994
   8   2.0000      -1.002723       -27.2855
   9   2.0000      -0.905261       -24.6334
  10   2.0000      -0.726516       -19.7695
  11   2.0000      -0.700071       -19.0499
  12   2.0000      -0.638534       -17.3754
  13   2.0000      -0.579780       -15.7766
  14   2.0000      -0.530854       -14.4453
  15   2.0000      -0.505170       -13.7464
  16   2.0000      -0.445948       -12.1349
  17   2.0000      -0.439887       -11.9699
  18   2.0000      -0.423325       -11.5193
  19   2.0000      -0.399856       -10.8806
  20   2.0000      -0.386636       -10.5209
  21   2.0000      -0.367114        -9.9897
  22   2.0000      -0.360044        -9.7973
  23   2.0000      -0.350774        -9.5450
  24   2.0000      -0.342530        -9.3207
  25   2.0000      -0.322541        -8.7768
  26   2.0000      -0.313605        -8.5336
  27   2.0000      -0.299385        -8.1467
  28   2.0000      -0.293566        -7.9883
  29   2.0000      -0.290650        -7.9090
  30   2.0000      -0.254738        -6.9318
  31   2.0000      -0.214447        -5.8354
  32   0.0000      -0.017291        -0.4705
  33   0.0000       0.040011         1.0888
  34   0.0000       0.048342         1.3155
  35   0.0000       0.078106         2.1254
  36   0.0000       0.081105         2.2070

MULLIKEN ATOMIC CHARGES
-----------------------
   0 C :   -0.248569
   1 C :   -0.231078
   2 C :   -0.131658
   3 C :    0.113813
   4 O :   -0.219163
   5 O :   -0.236060
   6 C :   -0.030230
   7 C :   -0.271004
   8 H :    0.106808
   9 H :    0.099626
  10 H :    0.097885
  11 H :    0.093614
  12 H :    0.109966
  13 H :    0.105739
  14 H :    0.091091
  15 H :    0.105739
  16 H :    0.104243
  17 H :    0.114561
  18 H :    0.110786
  19 H :    0.113890
Sum of atomic charges:    0.0000000

LOEWDIN ATOMIC CHARGES
----------------------
   0 C :   -0.339761
   1 C :   -0.226316
   2 C :   -0.245807
   3 C :    0.035421
   4 O :   -0.174792
   5 O :   -0.069331
   6 C :   -0.109081
   7 C :   -0.350795
   8 H :    0.121725
   9 H :    0.118606
  10 H :    0.117365
  11 H :    0.118038
  12 H :    0.124166
  13 H :    0.138915
  14 H :    0.126392
  15 H :    0.116639
  16 H :    0.115850
  17 H :    0.126430
  18 H :    0.130129
  19 H :    0.126204

  Mayer bond orders larger than 0.100000
B(  0-C ,  1-C ) :   1.1595 B(  0-C ,  8-H ) :   0.9525 B(  0-C ,  9-H ) :   0.9540
B(  0-C , 10-H ) :   0.9525 B(  1-C ,  2-C ) :   1.1276 B(  1-C , 11-H ) :   0.9304
B(  1-C , 12-H ) :   0.9217 B(  2-C ,  3-C ) :   1.0303 B(  2-C , 13-H ) :   0.8924
B(  2-C , 14-H ) :   0.9081 B(  3-C ,  4-O ) :   2.0396 B(  3-C ,  5-O ) :   1.2232
B(  5-O ,  6-C ) :   0.9107 B(  6-C ,  7-C ) :   1.1492 B(  6-C , 15-H ) :   0.9298
B(  6-C , 16-H ) :   0.9333 B(  7-C , 17-H ) :   0.9505 B(  7-C , 18-H ) :   0.9446
B(  7-C , 19-H ) :   0.9495

Dispersion correction           -0.014237619
FINAL SINGLE POINT ENERGY      -385.457951587230

DIPOLE MOMENT
-------------

Method             : SCF
Type of density    : Electron Density
Multiplicity       :   1
Irrep              :   0
Energy             :  -385.5329944342331032 Eh
Relativity type    :
Basis              : AO
                                X                 Y                 Z
Electronic contribution:      2.932865815       3.835826807      -2.007058854
Nuclear contribution   :     -2.650856823      -4.488862658       2.194553926
                        -----------------------------------------
Total Dipole Moment    :      0.282008991      -0.653035851       0.187495072
                        -----------------------------------------
Magnitude (a.u.)       :      0.735621707
Magnitude (Debye)      :      1.869801784

Rotational constants in cm-1:             0.171883             0.028414             0.025821
Rotational constants in MHz :          5152.914936           851.843136           774.079703

                             ****ORCA TERMINATED NORMALLY****
TOTAL RUN TIME: 0 days 0 hours 0 minutes 11 seconds 209 msec
