                         Program Version 6.0.0  -   RELEASE  -
|  1> ! pbe def2-sv(p) def2/J RI DEFGRID1 loosescf d4 GCP(DFT/SV(P)) printgap
|  2> %output
|  3>     printlevel normal
|  4> end
|  5> * xyz 0 1
|  6> C -2.3521287039 -1.3923851755 -0.2795741674
|  7> C -2.5323660141 0.0819636193 0.060996518
|  8> C -1.3201082672 0.6391695066 0.8149894852
|  9> C -0.1011902274 0.6518474704 -0.0708583317
| 10> O -0.0338613686 1.1934558787 -1.1558045034
| 11> O 0.9107368998 -0.0092086833 0.4724817709
| 12> C 2.1435374147 -0.0778892142 -0.2639679717
| 13> C 3.093635458 -0.9895352912 0.4878732523
| 14> H -1.4934726872 -1.5286615041 -0.9345433972
| 15> H -2.1920836277 -1.9765716676 0.623415085
| 16> H -3.2332274466 -1.7741010757 -0.7883190551
| 17> H -3.420288104 0.2095381955 0.6805617487
| 18> H -2.6667576658 0.6576743946 -0.8567474782
| 19> H -1.1010675875 0.0427064368 1.699651014
| 20> H -1.5206959593 1.670034655 1.111258073
| 21> H 1.9258893908 -0.4535495128 -1.2693768062
| 22> H 2.5441745576 0.9365982371 -0.3597748945
| 23> H 4.033473923 -1.0518213378 -0.0505497587
| 24> H 3.2750344689 -0.5960169899 1.483545634
| 25> H 2.6640981555 -1.9829778061 0.5767487344
| 26> *
| 27>
| 28>                          ****END OF INPUT****

CARTESIAN COORDINATES (ANGSTROEM)
---------------------------------
  C     -2.352129   -1.392385   -0.279574
  C     -2.532366    0.081964    0.060997
  C     -1.320108    0.639170    0.814989
  C     -0.101190    0.651847   -0.070858
  O     -0.033861    1.193456   -1.155805
  O      0.910737   -0.009209    0.472482
  C      2.143537   -0.077889   -0.263968
  C      3.093635   -0.989535    0.487873
  H     -1.493473   -1.528662   -0.934543
  H     -2.192084   -1.976572    0.623415
  H     -3.233227   -1.774101   -0.788319
  H     -3.420288    0.209538    0.680562
  H     -2.666758    0.657674   -0.856747
  H     -1.101068    0.042706    1.699651
  H     -1.520696    1.670035    1.111258
  H      1.925889   -0.453550   -1.269377
  H      2.544175    0.936598   -0.359775
  H      4.033474   -1.051821   -0.050550
  H      3.275034   -0.596017    1.483546
  H      2.664098   -1.982978    0.576749

 Total Charge           Charge          ....    0
 Multiplicity           Mult            ....    1
 Number of Electrons    NEL             ....   64
 Basis Dimension        Dim             ....  136

ORBITAL ENERGIES
----------------

  NO   OCC          E(Eh)            E(eV)
   0   2.0000     -18.797981      -511.5191
   1   2.0000     -18.729654      -509.6598
   2   2.0000     -10.003168      -272.2001
   3   2.0000      -9.946913      -270.6693
   4   2.0000      -9.895590      -269.2727
   5   2.0000      -9.890921      -269.1456
   6   2.0000      -9.889635      -269.1106
   7   2.0000      -9.877155      -268.7710
   8   2.0000      -1.004403       -27.3312
   9   2.0000      -0.906580       -24.6693
  10   2.0000      -0.727718       -19.8022
  11   2.0000      -0.700070       -19.0499
  12   2.0000      -0.636428       -17.3181
  13   2.0000      -0.583637       -15.8816
  14   2.0000      -0.531167       -14.4538
  15   2.0000      -0.503165       -13.6918
  16   2.0000      -0.449850       -12.2410
  17   2.0000      -0.443645       -12.0722
  18   2.0000      -0.414458       -11.2780
  19   2.0000      -0.403324       -10.9750
  20   2.0000      -0.387675       -10.5492
  21   2.0000      -0.363697        -9.8967
  22   2.0000      -0.362885        -9.8746
  23   2.0000      -0.352215        -9.5843
  24   2.0000      -0.346566        -9.4305
  25   2.0000      -0.322000        -8.7621
  26   2.0000      -0.309426        -8.4199
  27   2.0000      -0.297452        -8.0941
  28   2.0000      -0.295933        -8.0527
  29   2.0000      -0.291333        -7.9276
  30   2.0000      -0.256079        -6.9683
  31   2.0000      -0.215534        -5.8650
  32   0.0000      -0.019385        -0.5275
  33   0.0000       0.035866         0.9760
  34   0.0000       0.052706         1.4342
  35   0.0000       0.075503         2.0546
  36   0.0000       0.077488         2.1086

MULLIKEN ATOMIC CHARGES
-----------------------
   0 C :   -0.288556
   1 C :   -0.202283
   2 C :   -0.117626
   3 C :    0.087826
   4 O :   -0.216334
   5 O :   -0.236434
   6 C :   -0.031130
   7 C :   -0.271432
   8 H :    0.115614
   9 H :    0.098804
  10 H :    0.107909
  11 H :    0.091918
  12 H :    0.108618
  13 H :    0.091544
  14 H :    0.112175
  15 H :    0.105835
  16 H :    0.104124
  17 H :    0.110771
  18 H :    0.114369
  19 H :    0.114289
Sum of atomic charges:   -0.0000000

LOEWDIN ATOMIC CHARGES
----------------------
   0 C :   -0.342426
   1 C :   -0.226998
   2 C :   -0.246766
   3 C :    0.033927
   4 O :   -0.173737
   5 O :   -0.068434
   6 C :   -0.109201
   7 C :   -0.350595
   8 H :    0.120114
   9 H :    0.117310
  10 H :    0.121665
  11 H :    0.117930
  12 H :    0.124793
  13 H :    0.125953
  14 H :    0.141715
  15 H :    0.115974
  16 H :    0.116016
  17 H :    0.130083
  18 H :    0.126378
  19 H :    0.126297

  Mayer bond orders larger than 0.100000
B(  0-C ,  1-C ) :   1.1544 B(  0-C ,  8-H ) :   0.9491 B(  0-C ,  9-H ) :   0.9537
B(  0-C , 10-H ) :   0.9520 B(  1-C ,  2-C ) :   1.1121 B(  1-C , 11-H ) :   0.9284
B(  1-C , 12-H ) :   0.9199 B(  2-C ,  3-C ) :   1.0252 B(  2-C , 13-H ) :   0.9106
B(  2-C , 14-H ) :   0.8929 B(  3-C ,  4-O ) :   2.0399 B(  3-C ,  5-O ) :   1.2173
B(  5-O ,  6-C ) :   0.9119 B(  6-C ,  7-C ) :   1.1502 B(  6-C , 15-H ) :   0.9291
B(  6-C , 16-H ) :   0.9335 B(  7-C , 17-H ) :   0.9447 B(  7-C , 18-H ) :   0.9494
B(  7-C , 19-H ) :   0.9506

Dispersion correction           -0.014904325
FINAL SINGLE POINT ENERGY      -385.458208212589

DIPOLE MOMENT
-------------

Method             : SCF
Type of density    : Electron Density
Multiplicity       :   1
Irrep              :   0
Energy             :  -385.5331367408042524 Eh
Relativity type    :
Basis              : AO
                                X                 Y                 Z
Electronic contribution:      1.361804148       5.041784559      -1.260707024
Nuclear contribution   :     -1.098652451      -5.468039298       1.787271977
                        -----------------------------------------
Total Dipole Moment    :      0.263151697      -0.426254739       0.526564953
                        -----------------------------------------
Magnitude (a.u.)       :      0.726782339
Magnitude (Debye)      :      1.847333895

Rotational constants in cm-1:             0.124689             0.035312             0.032054
Rotational constants in MHz :          3738.070767          1058.628609           960.947124

                             ****ORCA TERMINATED NORMALLY****
TOTAL RUN TIME: 0 days 0 hours 0 minutes 10 seconds 664 msec
