                         Program Version 6.0.0  -   RELEASE  -
|  1> ! r2scan-3c def2/J RI DEFGRID2 scfconv6 printgap
|  2> %output
|  3>     printlevel normal
|  4> end
|  5> * xyz 0 1
|  6> C -3.4519679889 -0.9071651612 0.3797015217
|  7> C -2.1124229036 -0.2211714113 0.6148590903
|  8> C -1.2698910285 -0.1956831189 -0.6693296651
|  9> C 0.027789109 0.51635094 -0.3977691822
| 10> O 0.2224110122 1.6991261126 -0.5953821792
| 11> O 0.9286821696 -0.3031058245 0.1224936097
| 12> C 2.2255886675 0.2070872071 0.4779530391
| 13> C 3.285066525 -0.7876150743 0.0372000335
| 14> H -4.0327887569 -0.9179235487 1.2978892866
| 15> H -4.0208810243 -0.380957361 -0.3824403424
| 16> H -3.3017333301 -1.9326659619 0.0527667565
| 17> H -1.5576379901 -0.7497907332 1.3921043796
| 18> H -2.2756881632 0.8043787887 0.9528706085
| 19> H -1.8051720989 0.3412736322 -1.4518411336
| 20> H -1.0580891389 -1.2155714534 -0.9875599484
| 21> H 2.3575114494 1.182585322 -0.0004484255
| 22> H 2.234593553 0.3360955081 1.5640108545
| 23> H 3.2671969865 -0.9044785106 -1.0428823128
| 24> H 4.2625799313 -0.4268758984 0.3398418809
| 25> H 3.0999720555 -1.7535491086 0.497741743
| 26> *
| 27>
| 28>                          ****END OF INPUT****

CARTESIAN COORDINATES (ANGSTROEM)
---------------------------------
  C     -3.451968   -0.907165    0.379702
  C     -2.112423   -0.221171    0.614859
  C     -1.269891   -0.195683   -0.669330
  C      0.027789    0.516351   -0.397769
  O      0.222411    1.699126   -0.595382
  O      0.928682   -0.303106    0.122494
  C      2.225589    0.207087    0.477953
  C      3.285067   -0.787615    0.037200
  H     -4.032789   -0.917924    1.297889
  H     -4.020881   -0.380957   -0.382440
  H     -3.301733   -1.932666    0.052767
  H     -1.557638   -0.749791    1.392104
  H     -2.275688    0.804379    0.952871
  H     -1.805172    0.341274   -1.451841
  H     -1.058089   -1.215571   -0.987560
  H      2.357511    1.182585   -0.000448
  H      2.234594    0.336096    1.564011
  H      3.267197   -0.904479   -1.042882
  H      4.262580   -0.426876    0.339842
  H      3.099972   -1.753549    0.497742

 Total Charge           Charge          ....    0
 Multiplicity           Mult            ....    1
 Number of Electrons    NEL             ....   64
 Basis Dimension        Dim             ....  222

ORBITAL ENERGIES
----------------

  NO   OCC          E(Eh)            E(eV)
   0   2.0000     -18.995592      -516.8964
   1   2.0000     -18.924614      -514.9649
   2   2.0000     -10.149904      -276.1929
   3   2.0000     -10.089682      -274.5542
   4   2.0000     -10.039895      -273.1994
   5   2.0000     -10.038593      -273.1640
   6   2.0000     -10.031553      -272.9724
   7   2.0000     -10.023514      -272.7537
   8   2.0000      -1.069953       -29.1149
   9   2.0000      -0.972585       -26.4654
  10   2.0000      -0.775495       -21.1023
  11   2.0000      -0.742259       -20.1979
  12   2.0000      -0.680972       -18.5302
  13   2.0000      -0.616555       -16.7773
  14   2.0000      -0.567717       -15.4484
  15   2.0000      -0.531330       -14.4582
  16   2.0000      -0.471825       -12.8390
  17   2.0000      -0.455259       -12.3882
  18   2.0000      -0.441736       -12.0202
  19   2.0000      -0.422327       -11.4921
  20   2.0000      -0.406667       -11.0660
  21   2.0000      -0.390190       -10.6176
  22   2.0000      -0.376720       -10.2511
  23   2.0000      -0.360876        -9.8199
  24   2.0000      -0.352754        -9.5989
  25   2.0000      -0.349683        -9.5154
  26   2.0000      -0.325893        -8.8680
  27   2.0000      -0.311303        -8.4710
  28   2.0000      -0.309874        -8.4321
  29   2.0000      -0.306021        -8.3272
  30   2.0000      -0.268310        -7.3011
  31   2.0000      -0.231367        -6.2958
  32   0.0000      -0.012426        -0.3381
  33   0.0000       0.076825         2.0905
  34   0.0000       0.094093         2.5604
  35   0.0000       0.105177         2.8620
  36   0.0000       0.120586         3.2813

MULLIKEN ATOMIC CHARGES
-----------------------
   0 C :   -0.473166
   1 C :   -0.232509
   2 C :   -0.342105
   3 C :    0.427276
   4 O :   -0.435910
   5 O :   -0.178827
   6 C :   -0.159785
   7 C :   -0.444826
   8 H :    0.150691
   9 H :    0.146586
  10 H :    0.144389
  11 H :    0.148279
  12 H :    0.153602
  13 H :    0.162210
  14 H :    0.154504
  15 H :    0.185787
  16 H :    0.142459
  17 H :    0.152394
  18 H :    0.146464
  19 H :    0.152489
Sum of atomic charges:    0.0000000

LOEWDIN ATOMIC CHARGES
----------------------
   0 C :   -0.419564
   1 C :   -0.287676
   2 C :   -0.229490
   3 C :    0.357950
   4 O :   -0.438461
   5 O :   -0.598201
   6 C :    0.031543
   7 C :   -0.387258
   8 H :    0.153079
   9 H :    0.151540
  10 H :    0.150610
  11 H :    0.158463
  12 H :    0.160517
  13 H :    0.176982
  14 H :    0.175908
  15 H :    0.194479
  16 H :    0.174115
  17 H :    0.158384
  18 H :    0.159092
  19 H :    0.157988

  Mayer bond orders larger than 0.100000
B(  0-C ,  1-C ) :   0.8955 B(  0-C ,  8-H ) :   0.9720 B(  0-C ,  9-H ) :   0.9836
B(  0-C , 10-H ) :   0.9850 B(  1-C ,  2-C ) :   0.9298 B(  1-C , 11-H ) :   0.9634
B(  1-C , 12-H ) :   0.9587 B(  2-C ,  3-C ) :   0.9686 B(  2-C , 13-H ) :   0.9781
B(  2-C , 14-H ) :   0.9748 B(  3-C ,  4-O ) :   1.8470 B(  3-C ,  5-O ) :   1.0444
B(  5-O ,  6-C ) :   0.7783 B(  6-C ,  7-C ) :   0.9490 B(  6-C , 15-H ) :   0.9680
B(  6-C , 16-H ) :   0.9478 B(  7-C , 17-H ) :   0.9739 B(  7-C , 18-H ) :   0.9672
B(  7-C , 19-H ) :   0.9705

Dispersion correction           -0.004869531
FINAL SINGLE POINT ENERGY      -386.234310223282

DIPOLE MOMENT
-------------

Method             : SCF
Type of density    : Electron Density
Multiplicity       :   1
Irrep              :   0
Energy             :  -386.2411416694961304 Eh
Relativity type    :
Basis              : AO
                                X                 Y                 Z
Electronic contribution:      2.794145948       4.435177989      -1.775280704
Nuclear contribution   :     -2.638071241      -5.249431612       2.087026050
                        -----------------------------------------
Total Dipole Moment    :      0.156074707      -0.814253623       0.311745346
                        -----------------------------------------
Magnitude (a.u.)       :      0.885750211
Magnitude (Debye)      :      2.251398116

Rotational constants in cm-1:             0.146517             0.030550             0.027324
Rotational constants in MHz :          4392.465100           915.862958           819.141299

                             ****ORCA TERMINATED NORMALLY****
TOTAL RUN TIME: 0 days 0 hours 0 minutes 28 seconds 559 msec
