                         Program Version 6.0.0  -   RELEASE  -
|  1> ! r2scan-3c def2/J RI DEFGRID2 scfconv6 printgap
|  2> %output
|  3>     printlevel normal
|  4> end
|  5> %cpcm
|  6>     smd true
|  7>     smdsolvent "water"
|  8> end
|  9> * xyz 0 1
| 10> C -3.4519679889 -0.9071651612 0.3797015217
| 11> C -2.1124229036 -0.2211714113 0.6148590903
| 12> C -1.2698910285 -0.1956831189 -0.6693296651
| 13> C 0.027789109 0.51635094 -0.3977691822
| 14> O 0.2224110122 1.6991261126 -0.5953821792
| 15> O 0.9286821696 -0.3031058245 0.1224936097
| 16> C 2.2255886675 0.2070872071 0.4779530391
| 17> C 3.285066525 -0.7876150743 0.0372000335
| 18> H -4.0327887569 -0.9179235487 1.2978892866
| 19> H -4.0208810243 -0.380957361 -0.3824403424
| 20> H -3.3017333301 -1.9326659619 0.0527667565
| 21> H -1.5576379901 -0.7497907332 1.3921043796
| 22> H -2.2756881632 0.8043787887 0.9528706085
| 23> H -1.8051720989 0.3412736322 -1.4518411336
| 24> H -1.0580891389 -1.2155714534 -0.9875599484
| 25> H 2.3575114494 1.182585322 -0.0004484255
| 26> H 2.234593553 0.3360955081 1.5640108545
| 27> H 3.2671969865 -0.9044785106 -1.0428823128
| 28> H 4.2625799313 -0.4268758984 0.3398418809
| 29> H 3.0999720555 -1.7535491086 0.497741743
| 30> *
| 31>
| 32>                          ****END OF INPUT****

CARTESIAN COORDINATES (ANGSTROEM)
---------------------------------
  C     -3.451968   -0.907165    0.379702
  C     -2.112423   -0.221171    0.614859
  C     -1.269891   -0.195683   -0.669330
  C      0.027789    0.516351   -0.397769
  O      0.222411    1.699126   -0.595382
  O      0.928682   -0.303106    0.122494
  C      2.225589    0.207087    0.477953
  C      3.285067   -0.787615    0.037200
  H     -4.032789   -0.917924    1.297889
  H     -4.020881   -0.380957   -0.382440
  H     -3.301733   -1.932666    0.052767
  H     -1.557638   -0.749791    1.392104
  H     -2.275688    0.804379    0.952871
  H     -1.805172    0.341274   -1.451841
  H     -1.058089   -1.215571   -0.987560
  H      2.357511    1.182585   -0.000448
  H      2.234594    0.336096    1.564011
  H      3.267197   -0.904479   -1.042882
  H      4.262580   -0.426876    0.339842
  H      3.099972   -1.753549    0.497742

 Total Charge           Charge          ....    0
 Multiplicity           Mult            ....    1
 Number of Electrons    NEL             ....   64
 Basis Dimension        Dim             ....  222

ORBITAL ENERGIES
----------------

  NO   OCC          E(Eh)            E(eV)
   0   2.0000     -19.002045      -517.0719
   1   2.0000     -18.942023      -515.4386
   2   2.0000     -10.161782      -276.5161
   3   2.0000     -10.082453      -274.3575
   4   2.0000     -10.034702      -273.0581
   5   2.0000     -10.030356      -272.9399
   6   2.0000     -10.018500      -272.6172
   7   2.0000     -10.011980      -272.4398
   8   2.0000      -1.078171       -29.3385
   9   2.0000      -0.987823       -26.8800
  10   2.0000      -0.770265       -20.9600
  11   2.0000      -0.734278       -19.9807
  12   2.0000      -0.673977       -18.3398
  13   2.0000      -0.610005       -16.5991
  14   2.0000      -0.559722       -15.2308
  15   2.0000      -0.529990       -14.4217
  16   2.0000      -0.472362       -12.8536
  17   2.0000      -0.459992       -12.5170
  18   2.0000      -0.440476       -11.9859
  19   2.0000      -0.425248       -11.5716
  20   2.0000      -0.404798       -11.0151
  21   2.0000      -0.382510       -10.4086
  22   2.0000      -0.367136        -9.9903
  23   2.0000      -0.356678        -9.7057
  24   2.0000      -0.347509        -9.4562
  25   2.0000      -0.342475        -9.3192
  26   2.0000      -0.319727        -8.7002
  27   2.0000      -0.307513        -8.3678
  28   2.0000      -0.305271        -8.3069
  29   2.0000      -0.300547        -8.1783
  30   2.0000      -0.275205        -7.4887
  31   2.0000      -0.248339        -6.7576
  32   0.0000      -0.021788        -0.5929
  33   0.0000       0.079185         2.1547
  34   0.0000       0.102882         2.7996
  35   0.0000       0.115834         3.1520
  36   0.0000       0.128941         3.5087

MULLIKEN ATOMIC CHARGES
-----------------------
   0 C :   -0.516848
   1 C :   -0.220240
   2 C :   -0.366224
   3 C :    0.463623
   4 O :   -0.522670
   5 O :   -0.195540
   6 C :   -0.148855
   7 C :   -0.487711
   8 H :    0.162506
   9 H :    0.159109
  10 H :    0.158792
  11 H :    0.157742
  12 H :    0.157393
  13 H :    0.175398
  14 H :    0.176638
  15 H :    0.179680
  16 H :    0.169599
  17 H :    0.164550
  18 H :    0.168079
  19 H :    0.164978
Sum of atomic charges:   -0.0000000

LOEWDIN ATOMIC CHARGES
----------------------
   0 C :   -0.424800
   1 C :   -0.285276
   2 C :   -0.227756
   3 C :    0.366573
   4 O :   -0.501328
   5 O :   -0.598903
   6 C :    0.036591
   7 C :   -0.390493
   8 H :    0.156451
   9 H :    0.154853
  10 H :    0.154841
  11 H :    0.161706
  12 H :    0.161346
  13 H :    0.181994
  14 H :    0.185471
  15 H :    0.193294
  16 H :    0.184811
  17 H :    0.161232
  18 H :    0.167685
  19 H :    0.161707

  Mayer bond orders larger than 0.100000
B(  0-C ,  1-C ) :   0.8879 B(  0-C ,  8-H ) :   0.9687 B(  0-C ,  9-H ) :   0.9812
B(  0-C , 10-H ) :   0.9819 B(  1-C ,  2-C ) :   0.9197 B(  1-C , 11-H ) :   0.9604
B(  1-C , 12-H ) :   0.9579 B(  2-C ,  3-C ) :   0.9661 B(  2-C , 13-H ) :   0.9762
B(  2-C , 14-H ) :   0.9638 B(  3-C ,  4-O ) :   1.7749 B(  3-C ,  5-O ) :   1.0731
B(  5-O ,  6-C ) :   0.7669 B(  6-C ,  7-C ) :   0.9446 B(  6-C , 15-H ) :   0.9634
B(  6-C , 16-H ) :   0.9392 B(  7-C , 17-H ) :   0.9716 B(  7-C , 18-H ) :   0.9611
B(  7-C , 19-H ) :   0.9677

Dispersion correction           -0.004869531
FINAL SINGLE POINT ENERGY      -386.239421313061

DIPOLE MOMENT
-------------

Method             : SCF
Type of density    : Electron Density
Multiplicity       :   1
Irrep              :   0
Energy             :  -386.2462527592759898 Eh
Relativity type    :
Basis              : AO
                                X                 Y                 Z
Electronic contribution:      2.841611950       4.103805250      -1.663844317
Nuclear contribution   :     -2.638071241      -5.249431612       2.087026050
                        -----------------------------------------
Total Dipole Moment    :      0.203540710      -1.145626362       0.423181732
                        -----------------------------------------
Magnitude (a.u.)       :      1.238132206
Magnitude (Debye)      :      3.147081966

Rotational constants in cm-1:             0.146517             0.030550             0.027324
Rotational constants in MHz :          4392.465100           915.862958           819.141299

                             ****ORCA TERMINATED NORMALLY****
TOTAL RUN TIME: 0 days 0 hours 0 minutes 34 seconds 758 msec
