                         Program Version 6.0.0  -   RELEASE  -
|  1> ! pbe def2-sv(p) def2/J RI DEFGRID1 loosescf d4 GCP(DFT/SV(P)) printgap
|  2> %output
|  3>     printlevel normal
|  4> end
|  5> * xyz 0 1
|  6> C -1.9757638942 0.8048538496 0.4390015034
|  7> C -1.4920851305 -0.533247481 -0.1037677452
|  8> C -0.216523891 -0.3877771712 -0.9498249628
|  9> N 0.8909634828 -0.0642681718 -0.0633109144
| 10> O 1.1906788696 1.1032453455 0.0833564737
| 11> O 1.4359983147 -0.9796056335 0.5216614357
| 12> H -1.2084737293 1.2893081373 1.040068737
| 13> H -2.24098825 1.4742763499 -0.3752491464
| 14> H -2.8522345006 0.6585153703 1.063653014
| 15> H -2.261758852 -0.9698970652 -0.7392399342
| 16> H -1.2941470133 -1.2264976203 0.7161386461
| 17> H 0.0131340331 -1.3352788622 -1.4373967768
| 18> H -0.3274618267 0.4243940025 -1.668311496
| 19> *
| 20>
| 21>                          ****END OF INPUT****

CARTESIAN COORDINATES (ANGSTROEM)
---------------------------------
  C     -1.975764    0.804854    0.439002
  C     -1.492085   -0.533247   -0.103768
  C     -0.216524   -0.387777   -0.949825
  N      0.890963   -0.064268   -0.063311
  O      1.190679    1.103245    0.083356
  O      1.435998   -0.979606    0.521661
  H     -1.208474    1.289308    1.040069
  H     -2.240988    1.474276   -0.375249
  H     -2.852235    0.658515    1.063653
  H     -2.261759   -0.969897   -0.739240
  H     -1.294147   -1.226498    0.716139
  H      0.013134   -1.335279   -1.437397
  H     -0.327462    0.424394   -1.668311

 Total Charge           Charge          ....    0
 Multiplicity           Mult            ....    1
 Number of Electrons    NEL             ....   48
 Basis Dimension        Dim             ....   98

ORBITAL ENERGIES
----------------

  NO   OCC          E(Eh)            E(eV)
   0   2.0000     -18.781863      -511.0805
   1   2.0000     -18.779587      -511.0185
   2   2.0000     -14.205271      -386.5451
   3   2.0000      -9.948850      -270.7220
   4   2.0000      -9.917524      -269.8696
   5   2.0000      -9.891285      -269.1556
   6   2.0000      -1.133206       -30.8361
   7   2.0000      -0.962153       -26.1815
   8   2.0000      -0.771424       -20.9915
   9   2.0000      -0.683322       -18.5941
  10   2.0000      -0.582539       -15.8517
  11   2.0000      -0.528482       -14.3807
  12   2.0000      -0.496269       -13.5042
  13   2.0000      -0.473615       -12.8877
  14   2.0000      -0.456456       -12.4208
  15   2.0000      -0.419895       -11.4259
  16   2.0000      -0.404452       -11.0057
  17   2.0000      -0.382688       -10.4135
  18   2.0000      -0.333332        -9.0704
  19   2.0000      -0.328530        -8.9398
  20   2.0000      -0.322568        -8.7775
  21   2.0000      -0.272408        -7.4126
  22   2.0000      -0.253450        -6.8967
  23   2.0000      -0.232157        -6.3173
  24   0.0000      -0.096021        -2.6129
  25   0.0000       0.030676         0.8347
  26   0.0000       0.063829         1.7369
  27   0.0000       0.069503         1.8913
  28   0.0000       0.089278         2.4294

MULLIKEN ATOMIC CHARGES
-----------------------
   0 C :   -0.293916
   1 C :   -0.221848
   2 C :   -0.020685
   3 N :    0.168928
   4 O :   -0.217108
   5 O :   -0.221754
   6 H :    0.127341
   7 H :    0.106301
   8 H :    0.115247
   9 H :    0.112591
  10 H :    0.116119
  11 H :    0.118764
  12 H :    0.110020
Sum of atomic charges:   -0.0000000

LOEWDIN ATOMIC CHARGES
----------------------
   0 C :   -0.346938
   1 C :   -0.233178
   2 C :   -0.180488
   3 N :    0.241086
   4 O :   -0.188491
   5 O :   -0.192717
   6 H :    0.125416
   7 H :    0.122227
   8 H :    0.126180
   9 H :    0.129932
  10 H :    0.128780
  11 H :    0.136095
  12 H :    0.132096

  Mayer bond orders larger than 0.100000
B(  0-C ,  1-C ) :   1.1503 B(  0-C ,  6-H ) :   0.9474 B(  0-C ,  7-H ) :   0.9537
B(  0-C ,  8-H ) :   0.9487 B(  1-C ,  2-C ) :   1.1121 B(  1-C ,  9-H ) :   0.9232
B(  1-C , 10-H ) :   0.9196 B(  2-C ,  3-N ) :   0.9129 B(  2-C , 11-H ) :   0.9100
B(  2-C , 12-H ) :   0.9108 B(  3-N ,  4-O ) :   1.5396 B(  3-N ,  5-O ) :   1.5403
B(  4-O ,  5-O ) :   0.3099

Dispersion correction           -0.008894442
FINAL SINGLE POINT ENERGY      -322.968742802054

DIPOLE MOMENT
-------------

Method             : SCF
Type of density    : Electron Density
Multiplicity       :   1
Irrep              :   0
Energy             :  -323.0197363735733234 Eh
Relativity type    :
Basis              : AO
                                X                 Y                 Z
Electronic contribution:      8.366481851      -0.566491340       0.604721890
Nuclear contribution   :     -9.499136035       0.296837649      -1.305126225
                        -----------------------------------------
Total Dipole Moment    :     -1.132654184      -0.269653691      -0.700404335
                        -----------------------------------------
Magnitude (a.u.)       :      1.358743848
Magnitude (Debye)      :      3.453652396

Rotational constants in cm-1:             0.208505             0.088961             0.076444
Rotational constants in MHz :          6250.812316          2666.996169          2291.740852

                             ****ORCA TERMINATED NORMALLY****
TOTAL RUN TIME: 0 days 0 hours 0 minutes 9 seconds 868 msec
