                         Program Version 6.0.0  -   RELEASE  -
|  1> ! pbe def2-sv(p) def2/J RI DEFGRID1 loosescf d4 GCP(DFT/SV(P)) printgap
|  2> %output
|  3>     printlevel normal
|  4> end
|  5> * xyz 0 1
|  6> C 3.6286510867 -0.5133281939 0.1470067362
|  7> C 2.1614554672 -0.5136196449 -0.2679718178
|  8> C 1.4189937567 0.6888519592 0.3127887496
|  9> C -0.0248633019 0.8141613103 -0.1807763114
| 10> C -0.9049309842 -0.3068994121 0.3443282408
| 11> Cl -2.6149362744 -0.0494759298 -0.1533975509
| 12> H 3.7173954153 -0.5477765733 1.2303632927
| 13> H 4.1261071782 0.3861443391 -0.2083165944
| 14> H 4.1431558297 -1.3765693966 -0.2673058996
| 15> H 2.0939798772 -0.4870414957 -1.3574309061
| 16> H 1.6957079932 -1.4386430299 0.0743212697
| 17> H 1.9531840145 1.5977261756 0.0297679511
| 18> H 1.4253135451 0.6269458145 1.4026206653
| 19> H -0.0422214974 0.8083105223 -1.2719834949
| 20> H -0.434127896 1.7683558413 0.1560150313
| 21> H -0.6207052152 -1.2757217839 -0.0599204661
| 22> H -0.9066918364 -0.3373360398 1.4326857692
| 23> *
| 24>
| 25>                          ****END OF INPUT****

CARTESIAN COORDINATES (ANGSTROEM)
---------------------------------
  C      3.628651   -0.513328    0.147007
  C      2.161455   -0.513620   -0.267972
  C      1.418994    0.688852    0.312789
  C     -0.024863    0.814161   -0.180776
  C     -0.904931   -0.306899    0.344328
  Cl    -2.614936   -0.049476   -0.153398
  H      3.717395   -0.547777    1.230363
  H      4.126107    0.386144   -0.208317
  H      4.143156   -1.376569   -0.267306
  H      2.093980   -0.487041   -1.357431
  H      1.695708   -1.438643    0.074321
  H      1.953184    1.597726    0.029768
  H      1.425314    0.626946    1.402621
  H     -0.042221    0.808311   -1.271983
  H     -0.434128    1.768356    0.156015
  H     -0.620705   -1.275722   -0.059920
  H     -0.906692   -0.337336    1.432686

 Total Charge           Charge          ....    0
 Multiplicity           Mult            ....    1
 Number of Electrons    NEL             ....   58
 Basis Dimension        Dim             ....  110

ORBITAL ENERGIES
----------------

  NO   OCC          E(Eh)            E(eV)
   0   2.0000    -100.612901     -2737.8162
   1   2.0000      -9.938067      -270.4286
   2   2.0000      -9.893954      -269.2282
   3   2.0000      -9.891679      -269.1663
   4   2.0000      -9.889824      -269.1158
   5   2.0000      -9.877830      -268.7894
   6   2.0000      -9.148701      -248.9488
   7   2.0000      -6.980290      -189.9434
   8   2.0000      -6.968380      -189.6192
   9   2.0000      -6.968273      -189.6163
  10   2.0000      -0.773475       -21.0473
  11   2.0000      -0.724912       -19.7259
  12   2.0000      -0.668244       -18.1838
  13   2.0000      -0.596025       -16.2187
  14   2.0000      -0.549205       -14.9446
  15   2.0000      -0.514878       -14.0105
  16   2.0000      -0.434828       -11.8323
  17   2.0000      -0.422137       -11.4869
  18   2.0000      -0.399470       -10.8701
  19   2.0000      -0.381109       -10.3705
  20   2.0000      -0.365847        -9.9552
  21   2.0000      -0.348715        -9.4890
  22   2.0000      -0.330267        -8.9870
  23   2.0000      -0.318282        -8.6609
  24   2.0000      -0.299590        -8.1522
  25   2.0000      -0.293991        -7.9999
  26   2.0000      -0.284999        -7.7552
  27   2.0000      -0.241411        -6.5691
  28   2.0000      -0.240033        -6.5316
  29   0.0000       0.006136         0.1670
  30   0.0000       0.044914         1.2222
  31   0.0000       0.054874         1.4932
  32   0.0000       0.058563         1.5936
  33   0.0000       0.062053         1.6886

MULLIKEN ATOMIC CHARGES
-----------------------
   0 C :   -0.258391
   1 C :   -0.215638
   2 C :   -0.184302
   3 C :   -0.115735
   4 C :   -0.194177
   5 Cl:   -0.154468
   6 H :    0.098047
   7 H :    0.099336
   8 H :    0.104378
   9 H :    0.088169
  10 H :    0.094192
  11 H :    0.089245
  12 H :    0.083404
  13 H :    0.093387
  14 H :    0.096480
  15 H :    0.144755
  16 H :    0.131319
Sum of atomic charges:    0.0000000

LOEWDIN ATOMIC CHARGES
----------------------
   0 C :   -0.338810
   1 C :   -0.237941
   2 C :   -0.227023
   3 C :   -0.248170
   4 C :   -0.272723
   5 Cl:    0.016724
   6 H :    0.117596
   7 H :    0.117448
   8 H :    0.119764
   9 H :    0.116196
  10 H :    0.113569
  11 H :    0.119722
  12 H :    0.114767
  13 H :    0.120213
  14 H :    0.121474
  15 H :    0.123819
  16 H :    0.123374

  Mayer bond orders larger than 0.100000
B(  0-C ,  1-C ) :   1.1556 B(  0-C ,  6-H ) :   0.9545 B(  0-C ,  7-H ) :   0.9544
B(  0-C ,  8-H ) :   0.9530 B(  1-C ,  2-C ) :   1.1258 B(  1-C ,  9-H ) :   0.9274
B(  1-C , 10-H ) :   0.9235 B(  2-C ,  3-C ) :   1.1074 B(  2-C , 11-H ) :   0.9208
B(  2-C , 12-H ) :   0.9221 B(  3-C ,  4-C ) :   1.1043 B(  3-C , 13-H ) :   0.9170
B(  3-C , 14-H ) :   0.9187 B(  4-C ,  5-Cl) :   1.0321 B(  4-C , 15-H ) :   0.9228
B(  4-C , 16-H ) :   0.9283

Dispersion correction           -0.012638556
FINAL SINGLE POINT ENERGY      -656.511875237720

DIPOLE MOMENT
-------------

Method             : SCF
Type of density    : Electron Density
Multiplicity       :   1
Irrep              :   0
Energy             :  -656.5696726415319517 Eh
Relativity type    :
Basis              : AO
                                X                 Y                 Z
Electronic contribution:    -18.821202027       0.134502621      -1.132148946
Nuclear contribution   :     19.600397594      -0.192157416       1.294932334
                        -----------------------------------------
Total Dipole Moment    :      0.779195567      -0.057654795       0.162783388
                        -----------------------------------------
Magnitude (a.u.)       :      0.798102900
Magnitude (Debye)      :      2.028616354

Rotational constants in cm-1:             0.356919             0.029641             0.028635
Rotational constants in MHz :         10700.156597           888.618057           858.460093

                             ****ORCA TERMINATED NORMALLY****
TOTAL RUN TIME: 0 days 0 hours 0 minutes 7 seconds 124 msec
