                         Program Version 6.0.0  -   RELEASE  -
|  1> ! r2scan-3c def2/J RI DEFGRID2 scfconv6 printgap
|  2> %output
|  3>     printlevel normal
|  4> end
|  5> * xyz 0 1
|  6> C 1.7025711583 -1.2251443053 -0.752426394
|  7> C 1.5361453639 -0.0171898186 0.1539308708
|  8> C 1.7248406269 1.2981909963 -0.582877439
|  9> S -0.0055059141 -0.0712522431 1.1734735396
| 10> C -1.5375928673 -0.0013513552 0.1407284686
| 11> C -1.6974224608 1.3084156196 -0.6123982839
| 12> C -1.7172779254 -1.2168694514 -0.7531542399
| 13> H 1.0784184863 -1.1392362303 -1.6376789382
| 14> H 2.7401215969 -1.2929891603 -1.0737009829
| 15> H 1.4425649314 -2.1389655724 -0.224054512
| 16> H 2.2686977533 -0.0780786661 0.9663146799
| 17> H 2.7640429824 1.3906458239 -0.8924697116
| 18> H 1.4792612539 2.1373484889 0.0631815071
| 19> H 1.1010244295 1.3424702095 -1.4713850617
| 20> H -2.2778003906 -0.0405672096 0.9474968294
| 21> H -1.4482424123 2.1510189611 0.0277761391
| 22> H -1.0614237539 1.3337366583 -1.4929470277
| 23> H -2.7309875754 1.4123499668 -0.9367713409
| 24> H -1.4765300588 -2.1285994128 -0.2121574671
| 25> H -1.0849227089 -1.1519114812 -1.6342856736
| 26> H -2.7533187344 -1.2712573794 -1.0816939765
| 27> *
| 28>
| 29>                          ****END OF INPUT****

CARTESIAN COORDINATES (ANGSTROEM)
---------------------------------
  C      1.702571   -1.225144   -0.752426
  C      1.536145   -0.017190    0.153931
  C      1.724841    1.298191   -0.582877
  S     -0.005506   -0.071252    1.173474
  C     -1.537593   -0.001351    0.140728
  C     -1.697422    1.308416   -0.612398
  C     -1.717278   -1.216869   -0.753154
  H      1.078418   -1.139236   -1.637679
  H      2.740122   -1.292989   -1.073701
  H      1.442565   -2.138966   -0.224055
  H      2.268698   -0.078079    0.966315
  H      2.764043    1.390646   -0.892470
  H      1.479261    2.137348    0.063182
  H      1.101024    1.342470   -1.471385
  H     -2.277800   -0.040567    0.947497
  H     -1.448242    2.151019    0.027776
  H     -1.061424    1.333737   -1.492947
  H     -2.730988    1.412350   -0.936771
  H     -1.476530   -2.128599   -0.212157
  H     -1.084923   -1.151911   -1.634286
  H     -2.753319   -1.271257   -1.081694

 Total Charge           Charge          ....    0
 Multiplicity           Mult            ....    1
 Number of Electrons    NEL             ....   66
 Basis Dimension        Dim             ....  211

ORBITAL ENERGIES
----------------

  NO   OCC          E(Eh)            E(eV)
   0   2.0000     -88.532144     -2409.0821
   1   2.0000     -10.067431      -273.9487
   2   2.0000     -10.067413      -273.9482
   3   2.0000     -10.022859      -272.7359
   4   2.0000     -10.022829      -272.7350
   5   2.0000     -10.022701      -272.7316
   6   2.0000     -10.022696      -272.7314
   7   2.0000      -7.826320      -212.9650
   8   2.0000      -5.774142      -157.1224
   9   2.0000      -5.769823      -157.0049
  10   2.0000      -5.762847      -156.8150
  11   2.0000      -0.790324       -21.5058
  12   2.0000      -0.759411       -20.6646
  13   2.0000      -0.662762       -18.0347
  14   2.0000      -0.654396       -17.8070
  15   2.0000      -0.651889       -17.7388
  16   2.0000      -0.563634       -15.3373
  17   2.0000      -0.512273       -13.9397
  18   2.0000      -0.438667       -11.9367
  19   2.0000      -0.420081       -11.4310
  20   2.0000      -0.412667       -11.2293
  21   2.0000      -0.393398       -10.7049
  22   2.0000      -0.389956       -10.6112
  23   2.0000      -0.377451       -10.2710
  24   2.0000      -0.372960       -10.1488
  25   2.0000      -0.347215        -9.4482
  26   2.0000      -0.333737        -9.0815
  27   2.0000      -0.329834        -8.9752
  28   2.0000      -0.322680        -8.7806
  29   2.0000      -0.314992        -8.5714
  30   2.0000      -0.279868        -7.6156
  31   2.0000      -0.253531        -6.8989
  32   2.0000      -0.186378        -5.0716
  33   0.0000       0.032404         0.8817
  34   0.0000       0.041353         1.1253
  35   0.0000       0.080753         2.1974
  36   0.0000       0.113563         3.0902
  37   0.0000       0.114036         3.1031

MULLIKEN ATOMIC CHARGES
-----------------------
   0 C :   -0.470327
   1 C :   -0.037768
   2 C :   -0.466852
   3 S :   -0.145635
   4 C :   -0.038177
   5 C :   -0.469306
   6 C :   -0.467022
   7 H :    0.138471
   8 H :    0.142861
   9 H :    0.166653
  10 H :    0.152415
  11 H :    0.142670
  12 H :    0.166570
  13 H :    0.138082
  14 H :    0.152410
  15 H :    0.166530
  16 H :    0.138392
  17 H :    0.142668
  18 H :    0.166527
  19 H :    0.138066
  20 H :    0.142772
Sum of atomic charges:    0.0000000

LOEWDIN ATOMIC CHARGES
----------------------
   0 C :   -0.417672
   1 C :   -0.294315
   2 C :   -0.417832
   3 S :    0.043705
   4 C :   -0.294322
   5 C :   -0.417627
   6 C :   -0.417810
   7 H :    0.151198
   8 H :    0.153473
   9 H :    0.161991
  10 H :    0.174622
  11 H :    0.153381
  12 H :    0.162005
  13 H :    0.151289
  14 H :    0.174603
  15 H :    0.161972
  16 H :    0.151204
  17 H :    0.153424
  18 H :    0.161998
  19 H :    0.151334
  20 H :    0.153377

  Mayer bond orders larger than 0.100000
B(  0-C ,  1-C ) :   0.8946 B(  0-C ,  7-H ) :   0.9827 B(  0-C ,  8-H ) :   0.9565
B(  0-C ,  9-H ) :   0.9708 B(  1-C ,  2-C ) :   0.8952 B(  1-C ,  3-S ) :   0.9894
B(  1-C , 10-H ) :   0.9328 B(  2-C , 11-H ) :   0.9568 B(  2-C , 12-H ) :   0.9712
B(  2-C , 13-H ) :   0.9819 B(  3-S ,  4-C ) :   0.9891 B(  4-C ,  5-C ) :   0.8951
B(  4-C ,  6-C ) :   0.8949 B(  4-C , 14-H ) :   0.9329 B(  5-C , 15-H ) :   0.9708
B(  5-C , 16-H ) :   0.9825 B(  5-C , 17-H ) :   0.9566 B(  6-C , 18-H ) :   0.9712
B(  6-C , 19-H ) :   0.9819 B(  6-C , 20-H ) :   0.9568

Dispersion correction           -0.006546480
FINAL SINGLE POINT ENERGY      -635.150596154721

DIPOLE MOMENT
-------------

Method             : SCF
Type of density    : Electron Density
Multiplicity       :   1
Irrep              :   0
Energy             :  -635.1574413683507601 Eh
Relativity type    :
Basis              : AO
                                X                 Y                 Z
Electronic contribution:     -0.035251494      -0.455596230       7.490885851
Nuclear contribution   :      0.038535795       0.495504826      -8.151329966
                        -----------------------------------------
Total Dipole Moment    :      0.003284302       0.039908595      -0.660444115
                        -----------------------------------------
Magnitude (a.u.)       :      0.661656944
Magnitude (Debye)      :      1.681798297

Rotational constants in cm-1:             0.088059             0.050463             0.046778
Rotational constants in MHz :          2639.946784          1512.833788          1402.374796

                             ****ORCA TERMINATED NORMALLY****
TOTAL RUN TIME: 0 days 0 hours 0 minutes 25 seconds 436 msec
