                         Program Version 6.0.0  -   RELEASE  -
|  1> ! r2scan-3c def2/J RI DEFGRID2 scfconv6 printgap
|  2> %output
|  3>     printlevel normal
|  4> end
|  5> %cpcm
|  6>     smd true
|  7>     smdsolvent "water"
|  8> end
|  9> * xyz 0 1
| 10> C 1.7025711583 -1.2251443053 -0.752426394
| 11> C 1.5361453639 -0.0171898186 0.1539308708
| 12> C 1.7248406269 1.2981909963 -0.582877439
| 13> S -0.0055059141 -0.0712522431 1.1734735396
| 14> C -1.5375928673 -0.0013513552 0.1407284686
| 15> C -1.6974224608 1.3084156196 -0.6123982839
| 16> C -1.7172779254 -1.2168694514 -0.7531542399
| 17> H 1.0784184863 -1.1392362303 -1.6376789382
| 18> H 2.7401215969 -1.2929891603 -1.0737009829
| 19> H 1.4425649314 -2.1389655724 -0.224054512
| 20> H 2.2686977533 -0.0780786661 0.9663146799
| 21> H 2.7640429824 1.3906458239 -0.8924697116
| 22> H 1.4792612539 2.1373484889 0.0631815071
| 23> H 1.1010244295 1.3424702095 -1.4713850617
| 24> H -2.2778003906 -0.0405672096 0.9474968294
| 25> H -1.4482424123 2.1510189611 0.0277761391
| 26> H -1.0614237539 1.3337366583 -1.4929470277
| 27> H -2.7309875754 1.4123499668 -0.9367713409
| 28> H -1.4765300588 -2.1285994128 -0.2121574671
| 29> H -1.0849227089 -1.1519114812 -1.6342856736
| 30> H -2.7533187344 -1.2712573794 -1.0816939765
| 31> *
| 32>
| 33>                          ****END OF INPUT****

CARTESIAN COORDINATES (ANGSTROEM)
---------------------------------
  C      1.702571   -1.225144   -0.752426
  C      1.536145   -0.017190    0.153931
  C      1.724841    1.298191   -0.582877
  S     -0.005506   -0.071252    1.173474
  C     -1.537593   -0.001351    0.140728
  C     -1.697422    1.308416   -0.612398
  C     -1.717278   -1.216869   -0.753154
  H      1.078418   -1.139236   -1.637679
  H      2.740122   -1.292989   -1.073701
  H      1.442565   -2.138966   -0.224055
  H      2.268698   -0.078079    0.966315
  H      2.764043    1.390646   -0.892470
  H      1.479261    2.137348    0.063182
  H      1.101024    1.342470   -1.471385
  H     -2.277800   -0.040567    0.947497
  H     -1.448242    2.151019    0.027776
  H     -1.061424    1.333737   -1.492947
  H     -2.730988    1.412350   -0.936771
  H     -1.476530   -2.128599   -0.212157
  H     -1.084923   -1.151911   -1.634286
  H     -2.753319   -1.271257   -1.081694

 Total Charge           Charge          ....    0
 Multiplicity           Mult            ....    1
 Number of Electrons    NEL             ....   66
 Basis Dimension        Dim             ....  211

ORBITAL ENERGIES
----------------

  NO   OCC          E(Eh)            E(eV)
   0   2.0000     -88.531559     -2409.0662
   1   2.0000     -10.059398      -273.7301
   2   2.0000     -10.059387      -273.7298
   3   2.0000     -10.011831      -272.4358
   4   2.0000     -10.011825      -272.4356
   5   2.0000     -10.011760      -272.4338
   6   2.0000     -10.011748      -272.4335
   7   2.0000      -7.825785      -212.9504
   8   2.0000      -5.773388      -157.1019
   9   2.0000      -5.769212      -156.9882
  10   2.0000      -5.762683      -156.8106
  11   2.0000      -0.782635       -21.2966
  12   2.0000      -0.749793       -20.4029
  13   2.0000      -0.652601       -17.7582
  14   2.0000      -0.646166       -17.5831
  15   2.0000      -0.644205       -17.5297
  16   2.0000      -0.554648       -15.0927
  17   2.0000      -0.503046       -13.6886
  18   2.0000      -0.429190       -11.6789
  19   2.0000      -0.410787       -11.1781
  20   2.0000      -0.402371       -10.9491
  21   2.0000      -0.384049       -10.4505
  22   2.0000      -0.381307       -10.3759
  23   2.0000      -0.367483        -9.9997
  24   2.0000      -0.360840        -9.8190
  25   2.0000      -0.335208        -9.1215
  26   2.0000      -0.322543        -8.7768
  27   2.0000      -0.320706        -8.7268
  28   2.0000      -0.313549        -8.5321
  29   2.0000      -0.305645        -8.3170
  30   2.0000      -0.270174        -7.3518
  31   2.0000      -0.251762        -6.8508
  32   2.0000      -0.187105        -5.0914
  33   0.0000       0.038302         1.0423
  34   0.0000       0.042615         1.1596
  35   0.0000       0.089272         2.4292
  36   0.0000       0.125682         3.4200
  37   0.0000       0.126371         3.4387

MULLIKEN ATOMIC CHARGES
-----------------------
   0 C :   -0.514379
   1 C :   -0.005167
   2 C :   -0.512203
   3 S :   -0.224655
   4 C :   -0.005614
   5 C :   -0.514059
   6 C :   -0.511770
   7 H :    0.163508
   8 H :    0.159315
   9 H :    0.165714
  10 H :    0.167365
  11 H :    0.159207
  12 H :    0.165922
  13 H :    0.163037
  14 H :    0.167355
  15 H :    0.165870
  16 H :    0.163451
  17 H :    0.159165
  18 H :    0.165730
  19 H :    0.162939
  20 H :    0.159271
Sum of atomic charges:    0.0000000

LOEWDIN ATOMIC CHARGES
----------------------
   0 C :   -0.423153
   1 C :   -0.288120
   2 C :   -0.423428
   3 S :    0.001635
   4 C :   -0.288141
   5 C :   -0.423171
   6 C :   -0.423350
   7 H :    0.158424
   8 H :    0.158891
   9 H :    0.160116
  10 H :    0.179067
  11 H :    0.158831
  12 H :    0.160126
  13 H :    0.158436
  14 H :    0.179043
  15 H :    0.160141
  16 H :    0.158407
  17 H :    0.158867
  18 H :    0.160092
  19 H :    0.158476
  20 H :    0.158812

  Mayer bond orders larger than 0.100000
B(  0-C ,  1-C ) :   0.8866 B(  0-C ,  7-H ) :   0.9795 B(  0-C ,  8-H ) :   0.9544
B(  0-C ,  9-H ) :   0.9703 B(  1-C ,  2-C ) :   0.8868 B(  1-C ,  3-S ) :   0.9706
B(  1-C , 10-H ) :   0.9302 B(  2-C , 11-H ) :   0.9546 B(  2-C , 12-H ) :   0.9709
B(  2-C , 13-H ) :   0.9788 B(  3-S ,  4-C ) :   0.9703 B(  4-C ,  5-C ) :   0.8870
B(  4-C ,  6-C ) :   0.8866 B(  4-C , 14-H ) :   0.9303 B(  5-C , 15-H ) :   0.9704
B(  5-C , 16-H ) :   0.9793 B(  5-C , 17-H ) :   0.9545 B(  6-C , 18-H ) :   0.9709
B(  6-C , 19-H ) :   0.9789 B(  6-C , 20-H ) :   0.9546

Dispersion correction           -0.006546480
FINAL SINGLE POINT ENERGY      -635.152034786925

DIPOLE MOMENT
-------------

Method             : SCF
Type of density    : Electron Density
Multiplicity       :   1
Irrep              :   0
Energy             :  -635.1588800005552002 Eh
Relativity type    :
Basis              : AO
                                X                 Y                 Z
Electronic contribution:     -0.033658849      -0.435609715       7.168214935
Nuclear contribution   :      0.038535795       0.495504826      -8.151329966
                        -----------------------------------------
Total Dipole Moment    :      0.004876946       0.059895111      -0.983115031
                        -----------------------------------------
Magnitude (a.u.)       :      0.984949934
Magnitude (Debye)      :      2.503543773

Rotational constants in cm-1:             0.088059             0.050463             0.046778
Rotational constants in MHz :          2639.946784          1512.833788          1402.374796

                             ****ORCA TERMINATED NORMALLY****
TOTAL RUN TIME: 0 days 0 hours 0 minutes 30 seconds 353 msec
