                         Program Version 6.0.0  -   RELEASE  -
|  1> ! pbe def2-sv(p) def2/J RI DEFGRID1 loosescf d4 GCP(DFT/SV(P)) printgap
|  2> %output
|  3>     printlevel normal
|  4> end
|  5> * xyz 0 1
|  6> C -3.4131236097 -0.988157107 0.3281247507
|  7> C -2.0687422683 -0.3285225633 0.6070356252
|  8> C -1.2976812547 -0.0684701607 -0.6960512138
|  9> C 0.0090071062 0.6023560249 -0.3711824948
| 10> O 0.1864445499 1.8038506136 -0.3420917481
| 11> O 0.9526025297 -0.2799127805 -0.0789581331
| 12> C 2.2495894985 0.2118060921 0.3000415933
| 13> C 3.2369749303 -0.9360753577 0.2130942727
| 14> H -3.9432419419 -1.1648897214 1.2599137777
| 15> H -4.0268640931 -0.3502862602 -0.3025730392
| 16> H -3.2720763301 -1.940455018 -0.1761877429
| 17> H -1.467902838 -0.972449687 1.2518858349
| 18> H -2.2217245363 0.6211808316 1.1241037014
| 19> H -1.8775204813 0.5892075223 -1.3428843667
| 20> H -1.0983705837 -1.0141133712 -1.1983061362
| 21> H 2.5171351871 1.0355315043 -0.369865669
| 22> H 2.1800959014 0.6068971795 1.3186819393
| 23> H 4.2193036329 -0.5882531505 0.5149241984
| 24> H 2.9244484568 -1.7436471015 0.8682354525
| 25> H 3.2864428551 -1.3102500738 -0.80525171
| 26> *
| 27>
| 28>                          ****END OF INPUT****

CARTESIAN COORDINATES (ANGSTROEM)
---------------------------------
  C     -3.413124   -0.988157    0.328125
  C     -2.068742   -0.328523    0.607036
  C     -1.297681   -0.068470   -0.696051
  C      0.009007    0.602356   -0.371182
  O      0.186445    1.803851   -0.342092
  O      0.952603   -0.279913   -0.078958
  C      2.249589    0.211806    0.300042
  C      3.236975   -0.936075    0.213094
  H     -3.943242   -1.164890    1.259914
  H     -4.026864   -0.350286   -0.302573
  H     -3.272076   -1.940455   -0.176188
  H     -1.467903   -0.972450    1.251886
  H     -2.221725    0.621181    1.124104
  H     -1.877520    0.589208   -1.342884
  H     -1.098371   -1.014113   -1.198306
  H      2.517135    1.035532   -0.369866
  H      2.180096    0.606897    1.318682
  H      4.219304   -0.588253    0.514924
  H      2.924448   -1.743647    0.868235
  H      3.286443   -1.310250   -0.805252

 Total Charge           Charge          ....    0
 Multiplicity           Mult            ....    1
 Number of Electrons    NEL             ....   64
 Basis Dimension        Dim             ....  136

ORBITAL ENERGIES
----------------

  NO   OCC          E(Eh)            E(eV)
   0   2.0000     -18.795061      -511.4396
   1   2.0000     -18.729155      -509.6462
   2   2.0000      -9.999265      -272.0938
   3   2.0000      -9.944804      -270.6119
   4   2.0000      -9.895654      -269.2744
   5   2.0000      -9.893730      -269.2221
   6   2.0000      -9.888218      -269.0721
   7   2.0000      -9.880074      -268.8505
   8   2.0000      -1.002016       -27.2662
   9   2.0000      -0.904284       -24.6068
  10   2.0000      -0.729302       -19.8453
  11   2.0000      -0.699273       -19.0282
  12   2.0000      -0.639033       -17.3890
  13   2.0000      -0.579298       -15.7635
  14   2.0000      -0.533736       -14.5237
  15   2.0000      -0.506126       -13.7724
  16   2.0000      -0.448104       -12.1935
  17   2.0000      -0.435802       -11.8588
  18   2.0000      -0.425325       -11.5737
  19   2.0000      -0.396672       -10.7940
  20   2.0000      -0.388903       -10.5826
  21   2.0000      -0.368573       -10.0294
  22   2.0000      -0.360656        -9.8140
  23   2.0000      -0.346531        -9.4296
  24   2.0000      -0.342839        -9.3291
  25   2.0000      -0.329274        -8.9600
  26   2.0000      -0.314168        -8.5489
  27   2.0000      -0.298486        -8.1222
  28   2.0000      -0.297699        -8.1008
  29   2.0000      -0.291823        -7.9409
  30   2.0000      -0.253528        -6.8989
  31   2.0000      -0.211879        -5.7655
  32   0.0000      -0.015901        -0.4327
  33   0.0000       0.038696         1.0530
  34   0.0000       0.047927         1.3042
  35   0.0000       0.076937         2.0936
  36   0.0000       0.078961         2.1486

MULLIKEN ATOMIC CHARGES
-----------------------
   0 C :   -0.242553
   1 C :   -0.241220
   2 C :   -0.112866
   3 C :    0.109989
   4 O :   -0.216463
   5 O :   -0.245082
   6 C :   -0.027359
   7 C :   -0.274551
   8 H :    0.107160
   9 H :    0.101458
  10 H :    0.098972
  11 H :    0.097323
  12 H :    0.103696
  13 H :    0.097979
  14 H :    0.092963
  15 H :    0.109525
  16 H :    0.102365
  17 H :    0.110969
  18 H :    0.113228
  19 H :    0.114470
Sum of atomic charges:   -0.0000000

LOEWDIN ATOMIC CHARGES
----------------------
   0 C :   -0.339074
   1 C :   -0.225205
   2 C :   -0.241910
   3 C :    0.034655
   4 O :   -0.174296
   5 O :   -0.071816
   6 C :   -0.109125
   7 C :   -0.350963
   8 H :    0.121859
   9 H :    0.119408
  10 H :    0.118271
  11 H :    0.118331
  12 H :    0.122200
  13 H :    0.133538
  14 H :    0.129289
  15 H :    0.117714
  16 H :    0.115032
  17 H :    0.130030
  18 H :    0.125760
  19 H :    0.126303

  Mayer bond orders larger than 0.100000
B(  0-C ,  1-C ) :   1.1578 B(  0-C ,  8-H ) :   0.9516 B(  0-C ,  9-H ) :   0.9532
B(  0-C , 10-H ) :   0.9533 B(  1-C ,  2-C ) :   1.1302 B(  1-C , 11-H ) :   0.9268
B(  1-C , 12-H ) :   0.9266 B(  2-C ,  3-C ) :   1.0306 B(  2-C , 13-H ) :   0.9027
B(  2-C , 14-H ) :   0.8994 B(  3-C ,  4-O ) :   2.0528 B(  3-C ,  5-O ) :   1.2027
B(  5-O ,  6-C ) :   0.9117 B(  6-C ,  7-C ) :   1.1517 B(  6-C , 15-H ) :   0.9243
B(  6-C , 16-H ) :   0.9353 B(  7-C , 17-H ) :   0.9446 B(  7-C , 18-H ) :   0.9486
B(  7-C , 19-H ) :   0.9517

Dispersion correction           -0.014354193
FINAL SINGLE POINT ENERGY      -385.457212673072

DIPOLE MOMENT
-------------

Method             : SCF
Type of density    : Electron Density
Multiplicity       :   1
Irrep              :   0
Energy             :  -385.5321542355424072 Eh
Relativity type    :
Basis              : AO
                                X                 Y                 Z
Electronic contribution:      2.775495186       5.059844021      -1.838269806
Nuclear contribution   :     -2.591471223      -5.823614234       2.003944097
                        -----------------------------------------
Total Dipole Moment    :      0.184023963      -0.763770213       0.165674291
                        -----------------------------------------
Magnitude (a.u.)       :      0.802905803
Magnitude (Debye)      :      2.040824364

Rotational constants in cm-1:             0.136898             0.031199             0.027232
Rotational constants in MHz :          4104.084632           935.316974           816.402278

                             ****ORCA TERMINATED NORMALLY****
TOTAL RUN TIME: 0 days 0 hours 0 minutes 10 seconds 267 msec
