                         Program Version 6.0.0  -   RELEASE  -
|  1> ! r2scan-3c def2/J RI DEFGRID2 scfconv6 printgap
|  2> %output
|  3>     printlevel normal
|  4> end
|  5> * xyz 0 1
|  6> C -4.6203302258 -1.1639163856 -0.0566853347
|  7> C -3.8277933848 -2.3014205818 -0.1238157939
|  8> C -2.4500727208 -2.1859571656 -0.1272128109
|  9> C -1.8398049142 -0.9350267018 -0.063080779
| 10> C -2.6404782882 0.2109006926 0.0040370167
| 11> C -4.0284372074 0.0833869053 0.006205025
| 12> C -2.0366282467 1.5477427731 0.0720083185
| 13> O -2.7279226345 2.5631309733 0.1215337187
| 14> C -0.564635977 1.6127984277 0.0792911772
| 15> C 0.0075147664 2.8709703531 0.1572392009
| 16> C 1.3925048734 3.0166660624 0.1731588568
| 17> C 2.200998566 1.9137475622 0.1098845669
| 18> C 1.6606395247 0.6069577356 0.0265004793
| 19> C 0.2404265866 0.4514247049 0.0115592767
| 20> C -0.365414205 -0.8599614276 -0.0682225286
| 21> O 0.2906703333 -1.9144746018 -0.1393052292
| 22> N 2.4670716009 -0.4579612013 -0.0404590813
| 23> C 3.9077360611 -0.4295299945 -0.0180308657
| 24> C 4.4475905126 -1.8642247731 -0.0694108637
| 25> O 5.8509642434 -1.9099287339 0.0189082598
| 26> H -5.6953693584 -1.2510059541 -0.0535535454
| 27> H -4.2848249145 -3.2772571374 -0.1731685585
| 28> H -1.8161024516 -3.0586785291 -0.1788845457
| 29> H -4.6201326207 0.9853316343 0.0587434554
| 30> H -0.64609431 3.7282238796 0.2059430683
| 31> H 1.824867804 4.002840664 0.2355533276
| 32> H 3.27084489 2.0344408887 0.1241738593
| 33> H 2.0032493634 -1.3622277795 -0.0914393077
| 34> H 4.27237828 0.048688631 0.898691052
| 35> H 4.2869393299 0.1347889843 -0.8791661959
| 36> H 4.0969897648 -2.3603360023 -0.9833221078
| 37> H 4.0806207085 -2.4266103082 0.7923585803
| 38> H 6.238851727 -1.4931609629 -0.7633862343
| 39> *
| 40>
| 41>                          ****END OF INPUT****

CARTESIAN COORDINATES (ANGSTROEM)
---------------------------------
  C     -4.620330   -1.163916   -0.056685
  C     -3.827793   -2.301421   -0.123816
  C     -2.450073   -2.185957   -0.127213
  C     -1.839805   -0.935027   -0.063081
  C     -2.640478    0.210901    0.004037
  C     -4.028437    0.083387    0.006205
  C     -2.036628    1.547743    0.072008
  O     -2.727923    2.563131    0.121534
  C     -0.564636    1.612798    0.079291
  C      0.007515    2.870970    0.157239
  C      1.392505    3.016666    0.173159
  C      2.200999    1.913748    0.109885
  C      1.660640    0.606958    0.026500
  C      0.240427    0.451425    0.011559
  C     -0.365414   -0.859961   -0.068223
  O      0.290670   -1.914475   -0.139305
  N      2.467072   -0.457961   -0.040459
  C      3.907736   -0.429530   -0.018031
  C      4.447591   -1.864225   -0.069411
  O      5.850964   -1.909929    0.018908
  H     -5.695369   -1.251006   -0.053554
  H     -4.284825   -3.277257   -0.173169
  H     -1.816102   -3.058679   -0.178885
  H     -4.620133    0.985332    0.058743
  H     -0.646094    3.728224    0.205943
  H      1.824868    4.002841    0.235553
  H      3.270845    2.034441    0.124174
  H      2.003249   -1.362228   -0.091439
  H      4.272378    0.048689    0.898691
  H      4.286939    0.134789   -0.879166
  H      4.096990   -2.360336   -0.983322
  H      4.080621   -2.426610    0.792359
  H      6.238852   -1.493161   -0.763386

 Total Charge           Charge          ....    0
 Multiplicity           Mult            ....    1
 Number of Electrons    NEL             ....  140
 Basis Dimension        Dim             ....  465

ORBITAL ENERGIES
----------------

  NO   OCC          E(Eh)            E(eV)
   0   2.0000     -18.968934      -516.1709
   1   2.0000     -18.943328      -515.4742
   2   2.0000     -18.938470      -515.3420
   3   2.0000     -14.191709      -386.1760
   4   2.0000     -10.125510      -275.5291
   5   2.0000     -10.122598      -275.4499
   6   2.0000     -10.104307      -274.9522
   7   2.0000     -10.098122      -274.7839
   8   2.0000     -10.084729      -274.4194
   9   2.0000     -10.059901      -273.7438
  10   2.0000     -10.059741      -273.7395
  11   2.0000     -10.058158      -273.6964
  12   2.0000     -10.057656      -273.6827
  13   2.0000     -10.056453      -273.6500
  14   2.0000     -10.054489      -273.5966
  15   2.0000     -10.053524      -273.5703
  16   2.0000     -10.051834      -273.5243
  17   2.0000     -10.050887      -273.4985
  18   2.0000     -10.050236      -273.4808
  19   2.0000     -10.041820      -273.2518
  20   2.0000      -1.007724       -27.4216
  21   2.0000      -1.006390       -27.3853
  22   2.0000      -1.002673       -27.2841
  23   2.0000      -0.932056       -25.3625
  24   2.0000      -0.851500       -23.1705
  25   2.0000      -0.835332       -22.7305
  26   2.0000      -0.775348       -21.0983
  27   2.0000      -0.752202       -20.4685
  28   2.0000      -0.737785       -20.0761
  29   2.0000      -0.733044       -19.9471
  30   2.0000      -0.698112       -18.9966
  31   2.0000      -0.652199       -17.7472
  32   2.0000      -0.634269       -17.2593
  33   2.0000      -0.621301       -16.9064
  34   2.0000      -0.602640       -16.3987
  35   2.0000      -0.574227       -15.6255
  36   2.0000      -0.553809       -15.0699
  37   2.0000      -0.523028       -14.2323
  38   2.0000      -0.520255       -14.1569
  39   2.0000      -0.502132       -13.6637
  40   2.0000      -0.482776       -13.1370
  41   2.0000      -0.468735       -12.7549
  42   2.0000      -0.461309       -12.5529
  43   2.0000      -0.451854       -12.2956
  44   2.0000      -0.447502       -12.1772
  45   2.0000      -0.435110       -11.8399
  46   2.0000      -0.430263       -11.7080
  47   2.0000      -0.418312       -11.3828
  48   2.0000      -0.408178       -11.1071
  49   2.0000      -0.404462       -11.0060
  50   2.0000      -0.400473       -10.8974
  51   2.0000      -0.393498       -10.7076
  52   2.0000      -0.389804       -10.6071
  53   2.0000      -0.381456       -10.3799
  54   2.0000      -0.373124       -10.1532
  55   2.0000      -0.362444        -9.8626
  56   2.0000      -0.355422        -9.6715
  57   2.0000      -0.347279        -9.4499
  58   2.0000      -0.336048        -9.1443
  59   2.0000      -0.332320        -9.0429
  60   2.0000      -0.323766        -8.8101
  61   2.0000      -0.315231        -8.5779
  62   2.0000      -0.293184        -7.9780
  63   2.0000      -0.261869        -7.1258
  64   2.0000      -0.259894        -7.0721
  65   2.0000      -0.252627        -6.8743
  66   2.0000      -0.250881        -6.8268
  67   2.0000      -0.235334        -6.4038
  68   2.0000      -0.223058        -6.0697
  69   2.0000      -0.199591        -5.4311
  70   0.0000      -0.130293        -3.5455
  71   0.0000      -0.079733        -2.1696
  72   0.0000      -0.050722        -1.3802
  73   0.0000      -0.029087        -0.7915
  74   0.0000       0.023163         0.6303

MULLIKEN ATOMIC CHARGES
-----------------------
   0 C :   -0.131109
   1 C :   -0.126960
   2 C :   -0.225866
   3 C :    0.191363
   4 C :    0.139122
   5 C :   -0.214931
   6 C :    0.034369
   7 O :   -0.353369
   8 C :    0.194276
   9 C :   -0.250744
  10 C :   -0.136986
  11 C :   -0.265449
  12 C :    0.271209
  13 C :   -0.141979
  14 C :    0.014483
  15 O :   -0.444109
  16 N :   -0.060136
  17 C :   -0.212880
  18 C :   -0.234253
  19 O :   -0.406046
  20 H :    0.149109
  21 H :    0.148875
  22 H :    0.182129
  23 H :    0.181971
  24 H :    0.184874
  25 H :    0.147500
  26 H :    0.143564
  27 H :    0.320419
  28 H :    0.161602
  29 H :    0.137016
  30 H :    0.145698
  31 H :    0.155477
  32 H :    0.301758
Sum of atomic charges:   -0.0000000

LOEWDIN ATOMIC CHARGES
----------------------
   0 C :   -0.142988
   1 C :   -0.139886
   2 C :   -0.101752
   3 C :   -0.025973
   4 C :   -0.035679
   5 C :   -0.096704
   6 C :    0.270045
   7 O :   -0.478581
   8 C :   -0.023578
   9 C :   -0.123642
  10 C :   -0.125587
  11 C :   -0.137878
  12 C :    0.201579
  13 C :   -0.034196
  14 C :    0.270690
  15 O :   -0.536863
  16 N :   -0.691562
  17 C :   -0.020957
  18 C :    0.039517
  19 O :   -0.601329
  20 H :    0.170712
  21 H :    0.170617
  22 H :    0.192871
  23 H :    0.191905
  24 H :    0.193721
  25 H :    0.172157
  26 H :    0.176966
  27 H :    0.297758
  28 H :    0.181532
  29 H :    0.172165
  30 H :    0.162696
  31 H :    0.183861
  32 H :    0.268361

  Mayer bond orders larger than 0.100000
B(  0-C ,  1-C ) :   1.3221 B(  0-C ,  5-C ) :   1.3562 B(  0-C , 20-H ) :   0.9558
B(  1-C ,  2-C ) :   1.3496 B(  1-C , 21-H ) :   0.9557 B(  2-C ,  3-C ) :   1.3545
B(  2-C , 15-O ) :   0.1030 B(  2-C , 22-H ) :   0.9601 B(  3-C ,  4-C ) :   1.5209
B(  3-C , 14-C ) :   0.9210 B(  3-C , 15-O ) :  -0.2073 B(  4-C ,  5-C ) :   1.3504
B(  4-C ,  6-C ) :   0.8551 B(  4-C ,  7-O ) :  -0.2232 B(  5-C ,  7-O ) :   0.1081
B(  5-C , 23-H ) :   0.9632 B(  6-C ,  7-O ) :   2.1014 B(  6-C ,  8-C ) :   0.8637
B(  7-O ,  8-C ) :  -0.2175 B(  7-O ,  9-C ) :   0.1227 B(  8-C ,  9-C ) :   1.3968
B(  8-C , 13-C ) :   1.2782 B(  9-C , 10-C ) :   1.2452 B(  9-C , 24-H ) :   0.9663
B( 10-C , 11-C ) :   1.3666 B( 10-C , 25-H ) :   0.9660 B( 11-C , 12-C ) :   1.1252
B( 11-C , 26-H ) :   0.9524 B( 12-C , 13-C ) :   1.2719 B( 12-C , 14-C ) :  -0.1144
B( 12-C , 16-N ) :   1.3215 B( 13-C , 14-C ) :   0.9322 B( 13-C , 15-O ) :  -0.1334
B( 14-C , 15-O ) :   1.8926 B( 16-N , 17-C ) :   0.8535 B( 16-N , 27-H ) :   0.8262
B( 17-C , 18-C ) :   0.9128 B( 17-C , 28-H ) :   0.9343 B( 17-C , 29-H ) :   0.9340
B( 18-C , 19-O ) :   0.9921 B( 18-C , 30-H ) :   0.9843 B( 18-C , 31-H ) :   0.9714
B( 19-O , 32-H ) :   0.8918

Dispersion correction           -0.015438305
FINAL SINGLE POINT ENERGY      -897.784451634040

DIPOLE MOMENT
-------------

Method             : SCF
Type of density    : Electron Density
Multiplicity       :   1
Irrep              :   0
Energy             :  -897.7851200783277363 Eh
Relativity type    :
Basis              : AO
                                X                 Y                 Z
Electronic contribution:    -11.513348047       3.814901511       0.310657613
Nuclear contribution   :     12.271796996      -4.050604358      -0.757738964
                        -----------------------------------------
Total Dipole Moment    :      0.758448949      -0.235702847      -0.447081351
                        -----------------------------------------
Magnitude (a.u.)       :      0.911417783
Magnitude (Debye)      :      2.316639897

Rotational constants in cm-1:             0.020671             0.007065             0.005278
Rotational constants in MHz :           619.709721           211.807885           158.241400

                             ****ORCA TERMINATED NORMALLY****
TOTAL RUN TIME: 0 days 0 hours 2 minutes 3 seconds 489 msec
