                         Program Version 6.0.0  -   RELEASE  -
|  1> ! r2scan-3c def2/J RI DEFGRID2 scfconv6 printgap
|  2> %output
|  3>     printlevel normal
|  4> end
|  5> %cpcm
|  6>     smd true
|  7>     smdsolvent "water"
|  8> end
|  9> * xyz 0 1
| 10> C -4.6203302258 -1.1639163856 -0.0566853347
| 11> C -3.8277933848 -2.3014205818 -0.1238157939
| 12> C -2.4500727208 -2.1859571656 -0.1272128109
| 13> C -1.8398049142 -0.9350267018 -0.063080779
| 14> C -2.6404782882 0.2109006926 0.0040370167
| 15> C -4.0284372074 0.0833869053 0.006205025
| 16> C -2.0366282467 1.5477427731 0.0720083185
| 17> O -2.7279226345 2.5631309733 0.1215337187
| 18> C -0.564635977 1.6127984277 0.0792911772
| 19> C 0.0075147664 2.8709703531 0.1572392009
| 20> C 1.3925048734 3.0166660624 0.1731588568
| 21> C 2.200998566 1.9137475622 0.1098845669
| 22> C 1.6606395247 0.6069577356 0.0265004793
| 23> C 0.2404265866 0.4514247049 0.0115592767
| 24> C -0.365414205 -0.8599614276 -0.0682225286
| 25> O 0.2906703333 -1.9144746018 -0.1393052292
| 26> N 2.4670716009 -0.4579612013 -0.0404590813
| 27> C 3.9077360611 -0.4295299945 -0.0180308657
| 28> C 4.4475905126 -1.8642247731 -0.0694108637
| 29> O 5.8509642434 -1.9099287339 0.0189082598
| 30> H -5.6953693584 -1.2510059541 -0.0535535454
| 31> H -4.2848249145 -3.2772571374 -0.1731685585
| 32> H -1.8161024516 -3.0586785291 -0.1788845457
| 33> H -4.6201326207 0.9853316343 0.0587434554
| 34> H -0.64609431 3.7282238796 0.2059430683
| 35> H 1.824867804 4.002840664 0.2355533276
| 36> H 3.27084489 2.0344408887 0.1241738593
| 37> H 2.0032493634 -1.3622277795 -0.0914393077
| 38> H 4.27237828 0.048688631 0.898691052
| 39> H 4.2869393299 0.1347889843 -0.8791661959
| 40> H 4.0969897648 -2.3603360023 -0.9833221078
| 41> H 4.0806207085 -2.4266103082 0.7923585803
| 42> H 6.238851727 -1.4931609629 -0.7633862343
| 43> *
| 44>
| 45>                          ****END OF INPUT****

CARTESIAN COORDINATES (ANGSTROEM)
---------------------------------
  C     -4.620330   -1.163916   -0.056685
  C     -3.827793   -2.301421   -0.123816
  C     -2.450073   -2.185957   -0.127213
  C     -1.839805   -0.935027   -0.063081
  C     -2.640478    0.210901    0.004037
  C     -4.028437    0.083387    0.006205
  C     -2.036628    1.547743    0.072008
  O     -2.727923    2.563131    0.121534
  C     -0.564636    1.612798    0.079291
  C      0.007515    2.870970    0.157239
  C      1.392505    3.016666    0.173159
  C      2.200999    1.913748    0.109885
  C      1.660640    0.606958    0.026500
  C      0.240427    0.451425    0.011559
  C     -0.365414   -0.859961   -0.068223
  O      0.290670   -1.914475   -0.139305
  N      2.467072   -0.457961   -0.040459
  C      3.907736   -0.429530   -0.018031
  C      4.447591   -1.864225   -0.069411
  O      5.850964   -1.909929    0.018908
  H     -5.695369   -1.251006   -0.053554
  H     -4.284825   -3.277257   -0.173169
  H     -1.816102   -3.058679   -0.178885
  H     -4.620133    0.985332    0.058743
  H     -0.646094    3.728224    0.205943
  H      1.824868    4.002841    0.235553
  H      3.270845    2.034441    0.124174
  H      2.003249   -1.362228   -0.091439
  H      4.272378    0.048689    0.898691
  H      4.286939    0.134789   -0.879166
  H      4.096990   -2.360336   -0.983322
  H      4.080621   -2.426610    0.792359
  H      6.238852   -1.493161   -0.763386

 Total Charge           Charge          ....    0
 Multiplicity           Mult            ....    1
 Number of Electrons    NEL             ....  140
 Basis Dimension        Dim             ....  465

ORBITAL ENERGIES
----------------

  NO   OCC          E(Eh)            E(eV)
   0   2.0000     -18.957978      -515.8728
   1   2.0000     -18.949346      -515.6379
   2   2.0000     -18.946875      -515.5707
   3   2.0000     -14.186541      -386.0354
   4   2.0000     -10.132088      -275.7081
   5   2.0000     -10.127851      -275.5928
   6   2.0000     -10.100585      -274.8509
   7   2.0000     -10.079407      -274.2746
   8   2.0000     -10.064767      -273.8762
   9   2.0000     -10.060320      -273.7552
  10   2.0000     -10.060312      -273.7550
  11   2.0000     -10.058508      -273.7059
  12   2.0000     -10.056683      -273.6563
  13   2.0000     -10.050531      -273.4888
  14   2.0000     -10.050030      -273.4752
  15   2.0000     -10.049798      -273.4689
  16   2.0000     -10.048375      -273.4302
  17   2.0000     -10.048193      -273.4252
  18   2.0000     -10.046067      -273.3674
  19   2.0000     -10.042234      -273.2631
  20   2.0000      -1.016330       -27.6558
  21   2.0000      -1.011726       -27.5305
  22   2.0000      -0.994549       -27.0630
  23   2.0000      -0.925034       -25.1714
  24   2.0000      -0.851383       -23.1673
  25   2.0000      -0.833145       -22.6710
  26   2.0000      -0.773248       -21.0411
  27   2.0000      -0.743978       -20.2447
  28   2.0000      -0.737158       -20.0591
  29   2.0000      -0.730436       -19.8762
  30   2.0000      -0.690068       -18.7777
  31   2.0000      -0.651665       -17.7327
  32   2.0000      -0.627606       -17.0780
  33   2.0000      -0.614962       -16.7340
  34   2.0000      -0.594811       -16.1856
  35   2.0000      -0.569491       -15.4966
  36   2.0000      -0.552275       -15.0282
  37   2.0000      -0.520146       -14.1539
  38   2.0000      -0.515425       -14.0254
  39   2.0000      -0.493139       -13.4190
  40   2.0000      -0.471623       -12.8335
  41   2.0000      -0.463762       -12.6196
  42   2.0000      -0.460078       -12.5194
  43   2.0000      -0.444024       -12.0825
  44   2.0000      -0.438831       -11.9412
  45   2.0000      -0.429163       -11.6781
  46   2.0000      -0.426240       -11.5986
  47   2.0000      -0.419478       -11.4146
  48   2.0000      -0.414771       -11.2865
  49   2.0000      -0.406468       -11.0606
  50   2.0000      -0.399229       -10.8636
  51   2.0000      -0.390669       -10.6306
  52   2.0000      -0.386844       -10.5266
  53   2.0000      -0.378190       -10.2911
  54   2.0000      -0.370626       -10.0853
  55   2.0000      -0.357885        -9.7385
  56   2.0000      -0.348023        -9.4702
  57   2.0000      -0.343845        -9.3565
  58   2.0000      -0.337066        -9.1720
  59   2.0000      -0.329166        -8.9571
  60   2.0000      -0.322390        -8.7727
  61   2.0000      -0.305167        -8.3040
  62   2.0000      -0.286831        -7.8051
  63   2.0000      -0.264883        -7.2078
  64   2.0000      -0.252108        -6.8602
  65   2.0000      -0.251600        -6.8464
  66   2.0000      -0.250873        -6.8266
  67   2.0000      -0.244033        -6.6405
  68   2.0000      -0.231464        -6.2985
  69   2.0000      -0.196415        -5.3447
  70   0.0000      -0.134086        -3.6487
  71   0.0000      -0.080297        -2.1850
  72   0.0000      -0.048831        -1.3288
  73   0.0000      -0.027758        -0.7553
  74   0.0000       0.024592         0.6692

MULLIKEN ATOMIC CHARGES
-----------------------
   0 C :   -0.169562
   1 C :   -0.158692
   2 C :   -0.240386
   3 C :    0.200111
   4 C :    0.138865
   5 C :   -0.227219
   6 C :    0.078032
   7 O :   -0.440378
   8 C :    0.186200
   9 C :   -0.257748
  10 C :   -0.187519
  11 C :   -0.259016
  12 C :    0.268503
  13 C :   -0.146093
  14 C :    0.033227
  15 O :   -0.506914
  16 N :   -0.083896
  17 C :   -0.223788
  18 C :   -0.222632
  19 O :   -0.488969
  20 H :    0.185345
  21 H :    0.185542
  22 H :    0.197388
  23 H :    0.195988
  24 H :    0.196961
  25 H :    0.183983
  26 H :    0.182984
  27 H :    0.353862
  28 H :    0.172762
  29 H :    0.172797
  30 H :    0.157528
  31 H :    0.166332
  32 H :    0.356400
Sum of atomic charges:   -0.0000000

LOEWDIN ATOMIC CHARGES
----------------------
   0 C :   -0.138972
   1 C :   -0.131990
   2 C :   -0.108178
   3 C :   -0.027592
   4 C :   -0.042104
   5 C :   -0.101701
   6 C :    0.277158
   7 O :   -0.547934
   8 C :   -0.031780
   9 C :   -0.127187
  10 C :   -0.123425
  11 C :   -0.120411
  12 C :    0.200744
  13 C :   -0.038937
  14 C :    0.271142
  15 O :   -0.580921
  16 N :   -0.675752
  17 C :   -0.013943
  18 C :    0.040324
  19 O :   -0.634606
  20 H :    0.184314
  21 H :    0.184525
  22 H :    0.196685
  23 H :    0.195076
  24 H :    0.195745
  25 H :    0.186221
  26 H :    0.193254
  27 H :    0.300349
  28 H :    0.188176
  29 H :    0.187719
  30 H :    0.170346
  31 H :    0.186010
  32 H :    0.287644

  Mayer bond orders larger than 0.100000
B(  0-C ,  1-C ) :   1.3100 B(  0-C ,  5-C ) :   1.3530 B(  0-C , 20-H ) :   0.9604
B(  1-C ,  2-C ) :   1.3395 B(  1-C , 21-H ) :   0.9603 B(  2-C ,  3-C ) :   1.2985
B(  2-C , 15-O ) :   0.1004 B(  2-C , 22-H ) :   0.9722 B(  3-C ,  4-C ) :   1.5096
B(  3-C , 14-C ) :   0.9159 B(  3-C , 15-O ) :  -0.2060 B(  4-C ,  5-C ) :   1.2886
B(  4-C ,  6-C ) :   0.8650 B(  4-C ,  7-O ) :  -0.2229 B(  5-C ,  7-O ) :   0.1042
B(  5-C , 23-H ) :   0.9736 B(  6-C ,  7-O ) :   2.0616 B(  6-C ,  8-C ) :   0.8745
B(  7-O ,  8-C ) :  -0.2169 B(  7-O ,  9-C ) :   0.1213 B(  8-C ,  9-C ) :   1.3281
B(  8-C , 13-C ) :   1.2649 B(  9-C , 10-C ) :   1.2278 B(  9-C , 24-H ) :   0.9810
B( 10-C , 11-C ) :   1.3643 B( 10-C , 25-H ) :   0.9763 B( 11-C , 12-C ) :   1.1010
B( 11-C , 26-H ) :   0.9608 B( 12-C , 13-C ) :   1.2345 B( 12-C , 14-C ) :  -0.1067
B( 12-C , 16-N ) :   1.3342 B( 13-C , 14-C ) :   0.9512 B( 13-C , 15-O ) :  -0.1364
B( 14-C , 15-O ) :   1.8703 B( 16-N , 17-C ) :   0.8614 B( 16-N , 27-H ) :   0.8195
B( 17-C , 18-C ) :   0.9136 B( 17-C , 28-H ) :   0.9299 B( 17-C , 29-H ) :   0.9263
B( 18-C , 19-O ) :   0.9842 B( 18-C , 30-H ) :   0.9721 B( 18-C , 31-H ) :   0.9701
B( 19-O , 32-H ) :   0.8635

Dispersion correction           -0.015438305
FINAL SINGLE POINT ENERGY      -897.805599674135

DIPOLE MOMENT
-------------

Method             : SCF
Type of density    : Electron Density
Multiplicity       :   1
Irrep              :   0
Energy             :  -897.8062681184226221 Eh
Relativity type    :
Basis              : AO
                                X                 Y                 Z
Electronic contribution:    -10.968153790       3.773780335       0.115143537
Nuclear contribution   :     12.271796996      -4.050604358      -0.757738964
                        -----------------------------------------
Total Dipole Moment    :      1.303643206      -0.276824022      -0.642595427
                        -----------------------------------------
Magnitude (a.u.)       :      1.479542507
Magnitude (Debye)      :      3.760698185

Rotational constants in cm-1:             0.020671             0.007065             0.005278
Rotational constants in MHz :           619.709721           211.807885           158.241400

                             ****ORCA TERMINATED NORMALLY****
TOTAL RUN TIME: 0 days 0 hours 2 minutes 33 seconds 475 msec
