                         Program Version 6.0.0  -   RELEASE  -
|  1> ! r2scan-3c def2/J RI DEFGRID2 scfconv6 printgap
|  2> %output
|  3>     printlevel normal
|  4> end
|  5> * xyz 0 1
|  6> C -3.4776128718 0.4217783518 -0.032155741
|  7> C -2.6070140012 -0.7318000728 0.4522483871
|  8> C -1.1916754007 -0.7035471413 -0.1247298166
|  9> C -0.3752635668 0.4992741577 0.3729107507
| 10> C 1.0148375447 0.4084319428 -0.1938598751
| 11> O 1.3547498989 0.8529725618 -1.2712837403
| 12> O 1.8245741018 -0.2586526288 0.6189753324
| 13> C 3.1791620231 -0.4924325081 0.2206157596
| 14> H -4.4971933882 0.2951355859 0.3227690993
| 15> H -3.1080799548 1.3745922511 0.3365661462
| 16> H -3.494177764 0.4549403817 -1.1191224254
| 17> H -2.552030481 -0.7152055462 1.5420789796
| 18> H -3.0725610026 -1.6739613563 0.1566710948
| 19> H -1.2394296561 -0.6720332455 -1.2154049359
| 20> H -0.6720783755 -1.6195573717 0.1645076054
| 21> H -0.3204225554 0.4826078508 1.4604815943
| 22> H -0.8281282682 1.4267044555 0.0267680528
| 23> H 3.3423997849 -1.5683207574 0.222460181
| 24> H 3.8280874642 -0.0096111088 0.9489026896
| 25> H 3.3483617779 -0.0797239691 -0.7745040174
| 26> *
| 27>
| 28>                          ****END OF INPUT****

CARTESIAN COORDINATES (ANGSTROEM)
---------------------------------
  C     -3.477613    0.421778   -0.032156
  C     -2.607014   -0.731800    0.452248
  C     -1.191675   -0.703547   -0.124730
  C     -0.375264    0.499274    0.372911
  C      1.014838    0.408432   -0.193860
  O      1.354750    0.852973   -1.271284
  O      1.824574   -0.258653    0.618975
  C      3.179162   -0.492433    0.220616
  H     -4.497193    0.295136    0.322769
  H     -3.108080    1.374592    0.336566
  H     -3.494178    0.454940   -1.119122
  H     -2.552030   -0.715206    1.542079
  H     -3.072561   -1.673961    0.156671
  H     -1.239430   -0.672033   -1.215405
  H     -0.672078   -1.619557    0.164508
  H     -0.320423    0.482608    1.460482
  H     -0.828128    1.426704    0.026768
  H      3.342400   -1.568321    0.222460
  H      3.828087   -0.009611    0.948903
  H      3.348362   -0.079724   -0.774504

 Total Charge           Charge          ....    0
 Multiplicity           Mult            ....    1
 Number of Electrons    NEL             ....   64
 Basis Dimension        Dim             ....  222

ORBITAL ENERGIES
----------------

  NO   OCC          E(Eh)            E(eV)
   0   2.0000     -18.998623      -516.9788
   1   2.0000     -18.926804      -515.0245
   2   2.0000     -10.152012      -276.2503
   3   2.0000     -10.084476      -274.4126
   4   2.0000     -10.040775      -273.2234
   5   2.0000     -10.037175      -273.1254
   6   2.0000     -10.031621      -272.9743
   7   2.0000     -10.019943      -272.6565
   8   2.0000      -1.071668       -29.1616
   9   2.0000      -0.974839       -26.5267
  10   2.0000      -0.780771       -21.2459
  11   2.0000      -0.728374       -19.8201
  12   2.0000      -0.684208       -18.6183
  13   2.0000      -0.625121       -17.0104
  14   2.0000      -0.550327       -14.9752
  15   2.0000      -0.532159       -14.4808
  16   2.0000      -0.471936       -12.8420
  17   2.0000      -0.453819       -12.3490
  18   2.0000      -0.448673       -12.2090
  19   2.0000      -0.426208       -11.5977
  20   2.0000      -0.414944       -11.2912
  21   2.0000      -0.397161       -10.8073
  22   2.0000      -0.378515       -10.2999
  23   2.0000      -0.367943       -10.0123
  24   2.0000      -0.351411        -9.5624
  25   2.0000      -0.337405        -9.1813
  26   2.0000      -0.319244        -8.6871
  27   2.0000      -0.306107        -8.3296
  28   2.0000      -0.304393        -8.2830
  29   2.0000      -0.299313        -8.1447
  30   2.0000      -0.270245        -7.3538
  31   2.0000      -0.234900        -6.3919
  32   0.0000      -0.013313        -0.3623
  33   0.0000       0.065612         1.7854
  34   0.0000       0.094190         2.5630
  35   0.0000       0.098059         2.6683
  36   0.0000       0.114683         3.1207

MULLIKEN ATOMIC CHARGES
-----------------------
   0 C :   -0.489744
   1 C :   -0.212415
   2 C :   -0.262272
   3 C :   -0.345326
   4 C :    0.415181
   5 O :   -0.436223
   6 O :   -0.198803
   7 C :   -0.305609
   8 H :    0.148522
   9 H :    0.146490
  10 H :    0.149432
  11 H :    0.133801
  12 H :    0.145546
  13 H :    0.157966
  14 H :    0.145813
  15 H :    0.157218
  16 H :    0.164086
  17 H :    0.147470
  18 H :    0.147968
  19 H :    0.190900
Sum of atomic charges:   -0.0000000

LOEWDIN ATOMIC CHARGES
----------------------
   0 C :   -0.424396
   1 C :   -0.314144
   2 C :   -0.281792
   3 C :   -0.227029
   4 C :    0.355904
   5 O :   -0.439267
   6 O :   -0.603528
   7 C :   -0.046351
   8 H :    0.152096
   9 H :    0.148923
  10 H :    0.152408
  11 H :    0.152325
  12 H :    0.154606
  13 H :    0.163646
  14 H :    0.161748
  15 H :    0.177008
  16 H :    0.178104
  17 H :    0.172916
  18 H :    0.173097
  19 H :    0.193727

  Mayer bond orders larger than 0.100000
B(  0-C ,  1-C ) :   0.8952 B(  0-C ,  8-H ) :   0.9692 B(  0-C ,  9-H ) :   0.9814
B(  0-C , 10-H ) :   0.9812 B(  1-C ,  2-C ) :   0.8944 B(  1-C , 11-H ) :   0.9824
B(  1-C , 12-H ) :   0.9677 B(  2-C ,  3-C ) :   0.9145 B(  2-C , 13-H ) :   0.9699
B(  2-C , 14-H ) :   0.9612 B(  3-C ,  4-C ) :   0.9922 B(  3-C , 15-H ) :   0.9770
B(  3-C , 16-H ) :   0.9613 B(  4-C ,  5-O ) :   1.8504 B(  4-C ,  6-O ) :   1.0394
B(  6-O ,  7-C ) :   0.8412 B(  7-C , 17-H ) :   0.9640 B(  7-C , 18-H ) :   0.9649
B(  7-C , 19-H ) :   0.9687

Dispersion correction           -0.005045411
FINAL SINGLE POINT ENERGY      -386.228199251599

DIPOLE MOMENT
-------------

Method             : SCF
Type of density    : Electron Density
Multiplicity       :   1
Irrep              :   0
Energy             :  -386.2352594668217307 Eh
Relativity type    :
Basis              : AO
                                X                 Y                 Z
Electronic contribution:      8.580139823       1.662256653      -1.262020054
Nuclear contribution   :     -8.645207729      -2.153129466       1.934372163
                        -----------------------------------------
Total Dipole Moment    :     -0.065067906      -0.490872813       0.672352110
                        -----------------------------------------
Magnitude (a.u.)       :      0.835013359
Magnitude (Debye)      :      2.122435286

Rotational constants in cm-1:             0.178504             0.028802             0.026687
Rotational constants in MHz :          5351.411832           863.470189           800.053071

                             ****ORCA TERMINATED NORMALLY****
TOTAL RUN TIME: 0 days 0 hours 0 minutes 24 seconds 832 msec
