                         Program Version 6.0.0  -   RELEASE  -
|  1> ! r2scan-3c def2/J RI DEFGRID2 scfconv6 printgap
|  2> %output
|  3>     printlevel normal
|  4> end
|  5> %cpcm
|  6>     smd true
|  7>     smdsolvent "water"
|  8> end
|  9> * xyz 0 1
| 10> C -3.4776128718 0.4217783518 -0.032155741
| 11> C -2.6070140012 -0.7318000728 0.4522483871
| 12> C -1.1916754007 -0.7035471413 -0.1247298166
| 13> C -0.3752635668 0.4992741577 0.3729107507
| 14> C 1.0148375447 0.4084319428 -0.1938598751
| 15> O 1.3547498989 0.8529725618 -1.2712837403
| 16> O 1.8245741018 -0.2586526288 0.6189753324
| 17> C 3.1791620231 -0.4924325081 0.2206157596
| 18> H -4.4971933882 0.2951355859 0.3227690993
| 19> H -3.1080799548 1.3745922511 0.3365661462
| 20> H -3.494177764 0.4549403817 -1.1191224254
| 21> H -2.552030481 -0.7152055462 1.5420789796
| 22> H -3.0725610026 -1.6739613563 0.1566710948
| 23> H -1.2394296561 -0.6720332455 -1.2154049359
| 24> H -0.6720783755 -1.6195573717 0.1645076054
| 25> H -0.3204225554 0.4826078508 1.4604815943
| 26> H -0.8281282682 1.4267044555 0.0267680528
| 27> H 3.3423997849 -1.5683207574 0.222460181
| 28> H 3.8280874642 -0.0096111088 0.9489026896
| 29> H 3.3483617779 -0.0797239691 -0.7745040174
| 30> *
| 31>
| 32>                          ****END OF INPUT****

CARTESIAN COORDINATES (ANGSTROEM)
---------------------------------
  C     -3.477613    0.421778   -0.032156
  C     -2.607014   -0.731800    0.452248
  C     -1.191675   -0.703547   -0.124730
  C     -0.375264    0.499274    0.372911
  C      1.014838    0.408432   -0.193860
  O      1.354750    0.852973   -1.271284
  O      1.824574   -0.258653    0.618975
  C      3.179162   -0.492433    0.220616
  H     -4.497193    0.295136    0.322769
  H     -3.108080    1.374592    0.336566
  H     -3.494178    0.454940   -1.119122
  H     -2.552030   -0.715206    1.542079
  H     -3.072561   -1.673961    0.156671
  H     -1.239430   -0.672033   -1.215405
  H     -0.672078   -1.619557    0.164508
  H     -0.320423    0.482608    1.460482
  H     -0.828128    1.426704    0.026768
  H      3.342400   -1.568321    0.222460
  H      3.828087   -0.009611    0.948903
  H      3.348362   -0.079724   -0.774504

 Total Charge           Charge          ....    0
 Multiplicity           Mult            ....    1
 Number of Electrons    NEL             ....   64
 Basis Dimension        Dim             ....  222

ORBITAL ENERGIES
----------------

  NO   OCC          E(Eh)            E(eV)
   0   2.0000     -19.004121      -517.1284
   1   2.0000     -18.942530      -515.4525
   2   2.0000     -10.162289      -276.5300
   3   2.0000     -10.074721      -274.1471
   4   2.0000     -10.034653      -273.0568
   5   2.0000     -10.028373      -272.8859
   6   2.0000     -10.020058      -272.6596
   7   2.0000     -10.008375      -272.3417
   8   2.0000      -1.078606       -29.3504
   9   2.0000      -0.988576       -26.9005
  10   2.0000      -0.773271       -21.0418
  11   2.0000      -0.722306       -19.6549
  12   2.0000      -0.676945       -18.4206
  13   2.0000      -0.616585       -16.7781
  14   2.0000      -0.542112       -14.7516
  15   2.0000      -0.529029       -14.3956
  16   2.0000      -0.471892       -12.8408
  17   2.0000      -0.458115       -12.4660
  18   2.0000      -0.449883       -12.2419
  19   2.0000      -0.423195       -11.5157
  20   2.0000      -0.405783       -11.0419
  21   2.0000      -0.394701       -10.7404
  22   2.0000      -0.375033       -10.2052
  23   2.0000      -0.361249        -9.8301
  24   2.0000      -0.345571        -9.4035
  25   2.0000      -0.330008        -8.9800
  26   2.0000      -0.320048        -8.7090
  27   2.0000      -0.298559        -8.1242
  28   2.0000      -0.295624        -8.0443
  29   2.0000      -0.290031        -7.8922
  30   2.0000      -0.276986        -7.5372
  31   2.0000      -0.250192        -6.8081
  32   0.0000      -0.021403        -0.5824
  33   0.0000       0.070926         1.9300
  34   0.0000       0.102815         2.7977
  35   0.0000       0.107867         2.9352
  36   0.0000       0.124973         3.4007

MULLIKEN ATOMIC CHARGES
-----------------------
   0 C :   -0.529589
   1 C :   -0.227063
   2 C :   -0.259294
   3 C :   -0.371392
   4 C :    0.450619
   5 O :   -0.519988
   6 O :   -0.214526
   7 C :   -0.318945
   8 H :    0.158354
   9 H :    0.160107
  10 H :    0.157651
  11 H :    0.146301
  12 H :    0.156066
  13 H :    0.161429
  14 H :    0.157082
  15 H :    0.177148
  16 H :    0.180518
  17 H :    0.175195
  18 H :    0.175252
  19 H :    0.185072
Sum of atomic charges:   -0.0000000

LOEWDIN ATOMIC CHARGES
----------------------
   0 C :   -0.432686
   1 C :   -0.313559
   2 C :   -0.280887
   3 C :   -0.225192
   4 C :    0.364157
   5 O :   -0.501002
   6 O :   -0.604970
   7 C :   -0.040588
   8 H :    0.154168
   9 H :    0.152704
  10 H :    0.153866
  11 H :    0.156273
  12 H :    0.157749
  13 H :    0.163992
  14 H :    0.165333
  15 H :    0.185888
  16 H :    0.183779
  17 H :    0.184588
  18 H :    0.184321
  19 H :    0.192065

  Mayer bond orders larger than 0.100000
B(  0-C ,  1-C ) :   0.8873 B(  0-C ,  8-H ) :   0.9671 B(  0-C ,  9-H ) :   0.9777
B(  0-C , 10-H ) :   0.9797 B(  1-C ,  2-C ) :   0.8900 B(  1-C , 11-H ) :   0.9822
B(  1-C , 12-H ) :   0.9679 B(  2-C ,  3-C ) :   0.9045 B(  2-C , 13-H ) :   0.9687
B(  2-C , 14-H ) :   0.9581 B(  3-C ,  4-C ) :   0.9867 B(  3-C , 15-H ) :   0.9672
B(  3-C , 16-H ) :   0.9604 B(  4-C ,  5-O ) :   1.7825 B(  4-C ,  6-O ) :   1.0650
B(  6-O ,  7-C ) :   0.8286 B(  7-C , 17-H ) :   0.9547 B(  7-C , 18-H ) :   0.9555
B(  7-C , 19-H ) :   0.9651

Dispersion correction           -0.005045411
FINAL SINGLE POINT ENERGY      -386.232513933826

DIPOLE MOMENT
-------------

Method             : SCF
Type of density    : Electron Density
Multiplicity       :   1
Irrep              :   0
Energy             :  -386.2395741490487922 Eh
Relativity type    :
Basis              : AO
                                X                 Y                 Z
Electronic contribution:      8.574366885       1.482653416      -0.947006282
Nuclear contribution   :     -8.645207729      -2.153129466       1.934372163
                        -----------------------------------------
Total Dipole Moment    :     -0.070840844      -0.670476050       0.987365881
                        -----------------------------------------
Magnitude (a.u.)       :      1.195595225
Magnitude (Debye)      :      3.038961552

Rotational constants in cm-1:             0.178504             0.028802             0.026687
Rotational constants in MHz :          5351.411832           863.470189           800.053071

                             ****ORCA TERMINATED NORMALLY****
TOTAL RUN TIME: 0 days 0 hours 0 minutes 32 seconds 569 msec
