                         Program Version 6.0.0  -   RELEASE  -
|  1> ! pbe def2-sv(p) def2/J RI DEFGRID1 loosescf d4 GCP(DFT/SV(P)) printgap
|  2> %output
|  3>     printlevel normal
|  4> end
|  5> * xyz 0 1
|  6> C 0.8725195751 -1.820782049 0.7642949926
|  7> O 0.7017679224 -1.2418030271 -0.5374004352
|  8> C 0.179097319 0.0336391261 -0.6327288849
|  9> O 0.7408898875 0.8563748468 0.3359006132
| 10> C 0.6321634142 2.2461960482 0.0490587307
| 11> O -1.2148999814 0.1018961503 -0.6375492506
| 12> C -1.8915212506 -0.200175231 0.5870154024
| 13> H 1.6233153016 -2.5940633115 0.6222500929
| 14> H -0.0576933828 -2.2665690145 1.1186402721
| 15> H 1.2316207652 -1.0736561171 1.4701763797
| 16> H 0.4466933334 0.370991483 -1.6503003682
| 17> H -0.413629444 2.5309935776 -0.0836545188
| 18> H 1.195814628 2.4883072526 -0.8552869993
| 19> H 1.0587709337 2.7513118865 0.9108072412
| 20> H -1.3101892864 0.1473995751 1.4420759899
| 21> H -2.0770291974 -1.273017801 0.6623580314
| 22> H -2.8374813147 0.3340778164 0.5341361811
| 23> *
| 24>
| 25>                          ****END OF INPUT****

CARTESIAN COORDINATES (ANGSTROEM)
---------------------------------
  C      0.872520   -1.820782    0.764295
  O      0.701768   -1.241803   -0.537400
  C      0.179097    0.033639   -0.632729
  O      0.740890    0.856375    0.335901
  C      0.632163    2.246196    0.049059
  O     -1.214900    0.101896   -0.637549
  C     -1.891521   -0.200175    0.587015
  H      1.623315   -2.594063    0.622250
  H     -0.057693   -2.266569    1.118640
  H      1.231621   -1.073656    1.470176
  H      0.446693    0.370991   -1.650300
  H     -0.413629    2.530994   -0.083655
  H      1.195815    2.488307   -0.855287
  H      1.058771    2.751312    0.910807
  H     -1.310189    0.147400    1.442076
  H     -2.077029   -1.273018    0.662358
  H     -2.837481    0.334078    0.534136

 Total Charge           Charge          ....    0
 Multiplicity           Mult            ....    1
 Number of Electrons    NEL             ....   58
 Basis Dimension        Dim             ....  118

ORBITAL ENERGIES
----------------

  NO   OCC          E(Eh)            E(eV)
   0   2.0000     -18.767395      -510.6868
   1   2.0000     -18.756271      -510.3841
   2   2.0000     -18.754678      -510.3407
   3   2.0000     -10.018699      -272.6227
   4   2.0000      -9.933673      -270.3090
   5   2.0000      -9.925699      -270.0920
   6   2.0000      -9.923618      -270.0354
   7   2.0000      -0.998229       -27.1632
   8   2.0000      -0.914697       -24.8902
   9   2.0000      -0.907920       -24.7058
  10   2.0000      -0.671752       -18.2793
  11   2.0000      -0.627762       -17.0823
  12   2.0000      -0.613590       -16.6966
  13   2.0000      -0.524969       -14.2851
  14   2.0000      -0.472959       -12.8699
  15   2.0000      -0.464342       -12.6354
  16   2.0000      -0.462929       -12.5969
  17   2.0000      -0.406781       -11.0691
  18   2.0000      -0.397385       -10.8134
  19   2.0000      -0.381938       -10.3931
  20   2.0000      -0.376755       -10.2520
  21   2.0000      -0.372133       -10.1263
  22   2.0000      -0.347871        -9.4660
  23   2.0000      -0.312641        -8.5074
  24   2.0000      -0.278242        -7.5714
  25   2.0000      -0.268268        -7.2999
  26   2.0000      -0.237086        -6.4514
  27   2.0000      -0.230682        -6.2772
  28   2.0000      -0.206988        -5.6324
  29   0.0000       0.038458         1.0465
  30   0.0000       0.060071         1.6346
  31   0.0000       0.078460         2.1350
  32   0.0000       0.080629         2.1940
  33   0.0000       0.086690         2.3590

MULLIKEN ATOMIC CHARGES
-----------------------
   0 C :   -0.119780
   1 O :   -0.314221
   2 C :    0.285769
   3 O :   -0.322767
   4 C :   -0.106649
   5 O :   -0.325375
   6 C :   -0.126374
   7 H :    0.115360
   8 H :    0.095051
   9 H :    0.117700
  10 H :    0.050416
  11 H :    0.104913
  12 H :    0.098881
  13 H :    0.118522
  14 H :    0.103165
  15 H :    0.110556
  16 H :    0.114834
Sum of atomic charges:    0.0000000

LOEWDIN ATOMIC CHARGES
----------------------
   0 C :   -0.209797
   1 O :   -0.156592
   2 C :    0.044862
   3 O :   -0.163782
   4 C :   -0.202998
   5 O :   -0.172786
   6 C :   -0.214231
   7 H :    0.116966
   8 H :    0.099906
   9 H :    0.111590
  10 H :    0.090686
  11 H :    0.105443
  12 H :    0.106143
  13 H :    0.118233
  14 H :    0.105023
  15 H :    0.105606
  16 H :    0.115729

  Mayer bond orders larger than 0.100000
B(  0-C ,  1-O ) :   0.9787 B(  0-C ,  7-H ) :   0.9643 B(  0-C ,  8-H ) :   0.9420
B(  0-C ,  9-H ) :   0.9387 B(  1-O ,  2-C ) :   1.1231 B(  2-C ,  3-O ) :   1.0439
B(  2-C ,  5-O ) :   1.0989 B(  2-C , 10-H ) :   0.9003 B(  3-O ,  4-C ) :   0.9830
B(  4-C , 11-H ) :   0.9430 B(  4-C , 12-H ) :   0.9471 B(  4-C , 13-H ) :   0.9640
B(  5-O ,  6-C ) :   0.9773 B(  6-C , 14-H ) :   0.9348 B(  6-C , 15-H ) :   0.9476
B(  6-C , 16-H ) :   0.9627

Dispersion correction           -0.012489474
FINAL SINGLE POINT ENERGY      -383.227700221254

DIPOLE MOMENT
-------------

Method             : SCF
Type of density    : Electron Density
Multiplicity       :   1
Irrep              :   0
Energy             :  -383.3080489109152609 Eh
Relativity type    :
Basis              : AO
                                X                 Y                 Z
Electronic contribution:      0.993003312      -0.947957723      -3.272492412
Nuclear contribution   :     -1.065954074       1.324031152       3.900847819
                        -----------------------------------------
Total Dipole Moment    :     -0.072950762       0.376073430       0.628355407
                        -----------------------------------------
Magnitude (a.u.)       :      0.735923607
Magnitude (Debye)      :      1.870569154

Rotational constants in cm-1:             0.106660             0.079212             0.057645
Rotational constants in MHz :          3197.575465          2374.707791          1728.146240

                             ****ORCA TERMINATED NORMALLY****
TOTAL RUN TIME: 0 days 0 hours 0 minutes 9 seconds 585 msec
