                         Program Version 6.0.0  -   RELEASE  -
|  1> ! r2scan-3c def2/J RI DEFGRID2 scfconv6 printgap
|  2> %output
|  3>     printlevel normal
|  4> end
|  5> * xyz 0 1
|  6> C -2.8123602741 -1.1230924191 -0.1092486752
|  7> C -2.5220692472 0.3717773945 -0.0475620423
|  8> C -1.2200800897 0.663329236 0.6985393233
|  9> C -0.0095032342 0.2045222741 -0.074119327
| 10> O 0.0942585597 0.2110440232 -1.2823975197
| 11> O 0.9540193302 -0.2063980652 0.7442038817
| 12> C 2.2068921103 -0.6215841707 0.1747259466
| 13> C 3.1323681503 0.5660781724 -0.0407627453
| 14> H -2.0162368278 -1.6400151049 -0.6414969811
| 15> H -2.8874526501 -1.5407966384 0.8919918058
| 16> H -3.7471592788 -1.3063813509 -0.6320347462
| 17> H -3.3417369289 0.8833451401 0.4574671786
| 18> H -2.4398043156 0.7681106236 -1.061220026
| 19> H -1.204758733 0.1871571017 1.6786743946
| 20> H -1.1083143632 1.7410051012 0.8392765616
| 21> H 2.62042445 -1.3208258758 0.9019334393
| 22> H 2.0075160844 -1.1313969669 -0.772817965
| 23> H 3.2803240655 1.0995977875 0.8941989253
| 24> H 4.0903067313 0.2135123446 -0.4086666375
| 25> H 2.7017345304 1.2456463444 -0.7728757139
| 26> *
| 27>
| 28>                          ****END OF INPUT****

CARTESIAN COORDINATES (ANGSTROEM)
---------------------------------
  C     -2.812360   -1.123092   -0.109249
  C     -2.522069    0.371777   -0.047562
  C     -1.220080    0.663329    0.698539
  C     -0.009503    0.204522   -0.074119
  O      0.094259    0.211044   -1.282398
  O      0.954019   -0.206398    0.744204
  C      2.206892   -0.621584    0.174726
  C      3.132368    0.566078   -0.040763
  H     -2.016237   -1.640015   -0.641497
  H     -2.887453   -1.540797    0.891992
  H     -3.747159   -1.306381   -0.632035
  H     -3.341737    0.883345    0.457467
  H     -2.439804    0.768111   -1.061220
  H     -1.204759    0.187157    1.678674
  H     -1.108314    1.741005    0.839277
  H      2.620424   -1.320826    0.901933
  H      2.007516   -1.131397   -0.772818
  H      3.280324    1.099598    0.894199
  H      4.090307    0.213512   -0.408667
  H      2.701735    1.245646   -0.772876

 Total Charge           Charge          ....    0
 Multiplicity           Mult            ....    1
 Number of Electrons    NEL             ....   64
 Basis Dimension        Dim             ....  222

ORBITAL ENERGIES
----------------

  NO   OCC          E(Eh)            E(eV)
   0   2.0000     -18.995902      -516.9048
   1   2.0000     -18.928772      -515.0781
   2   2.0000     -10.152111      -276.2530
   3   2.0000     -10.090618      -274.5797
   4   2.0000     -10.040989      -273.2292
   5   2.0000     -10.030265      -272.9374
   6   2.0000     -10.028608      -272.8923
   7   2.0000     -10.016160      -272.5536
   8   2.0000      -1.070649       -29.1338
   9   2.0000      -0.976186       -26.5634
  10   2.0000      -0.771238       -20.9864
  11   2.0000      -0.739012       -20.1095
  12   2.0000      -0.677475       -18.4350
  13   2.0000      -0.623498       -16.9663
  14   2.0000      -0.564037       -15.3482
  15   2.0000      -0.517722       -14.0879
  16   2.0000      -0.473899       -12.8954
  17   2.0000      -0.455976       -12.4077
  18   2.0000      -0.441425       -12.0118
  19   2.0000      -0.419222       -11.4076
  20   2.0000      -0.409359       -11.1392
  21   2.0000      -0.388578       -10.5737
  22   2.0000      -0.378536       -10.3005
  23   2.0000      -0.364154        -9.9091
  24   2.0000      -0.349450        -9.5090
  25   2.0000      -0.342994        -9.3333
  26   2.0000      -0.314890        -8.5686
  27   2.0000      -0.309366        -8.4183
  28   2.0000      -0.306702        -8.3458
  29   2.0000      -0.303025        -8.2457
  30   2.0000      -0.271461        -7.3868
  31   2.0000      -0.237231        -6.4554
  32   0.0000      -0.014490        -0.3943
  33   0.0000       0.075154         2.0450
  34   0.0000       0.091619         2.4931
  35   0.0000       0.108668         2.9570
  36   0.0000       0.120766         3.2862

MULLIKEN ATOMIC CHARGES
-----------------------
   0 C :   -0.500830
   1 C :   -0.198604
   2 C :   -0.300835
   3 C :    0.346854
   4 O :   -0.432840
   5 O :   -0.173568
   6 C :   -0.137229
   7 C :   -0.470536
   8 H :    0.161262
   9 H :    0.141875
  10 H :    0.147394
  11 H :    0.141051
  12 H :    0.156649
  13 H :    0.166424
  14 H :    0.167091
  15 H :    0.147773
  16 H :    0.167609
  17 H :    0.151801
  18 H :    0.146859
  19 H :    0.171799
Sum of atomic charges:    0.0000000

LOEWDIN ATOMIC CHARGES
----------------------
   0 C :   -0.417276
   1 C :   -0.297974
   2 C :   -0.232614
   3 C :    0.358781
   4 O :   -0.441315
   5 O :   -0.596045
   6 C :    0.026493
   7 C :   -0.390500
   8 H :    0.158063
   9 H :    0.148770
  10 H :    0.152695
  11 H :    0.152370
  12 H :    0.169339
  13 H :    0.179149
  14 H :    0.183333
  15 H :    0.177680
  16 H :    0.188017
  17 H :    0.156999
  18 H :    0.159097
  19 H :    0.164940

  Mayer bond orders larger than 0.100000
B(  0-C ,  1-C ) :   0.9087 B(  0-C ,  8-H ) :   0.9755 B(  0-C ,  9-H ) :   0.9823
B(  0-C , 10-H ) :   0.9694 B(  1-C ,  2-C ) :   0.9034 B(  1-C , 11-H ) :   0.9639
B(  1-C , 12-H ) :   0.9610 B(  2-C ,  3-C ) :   0.9568 B(  2-C , 13-H ) :   0.9968
B(  2-C , 14-H ) :   0.9201 B(  3-C ,  4-O ) :   1.8398 B(  3-C ,  5-O ) :   1.0585
B(  5-O ,  6-C ) :   0.8176 B(  6-C ,  7-C ) :   0.9375 B(  6-C , 15-H ) :   0.9614
B(  6-C , 16-H ) :   0.9673 B(  7-C , 17-H ) :   0.9736 B(  7-C , 18-H ) :   0.9652
B(  7-C , 19-H ) :   0.9719

Dispersion correction           -0.005088381
FINAL SINGLE POINT ENERGY      -386.237128653342

DIPOLE MOMENT
-------------

Method             : SCF
Type of density    : Electron Density
Multiplicity       :   1
Irrep              :   0
Energy             :  -386.2437986684797124 Eh
Relativity type    :
Basis              : AO
                                X                 Y                 Z
Electronic contribution:      2.145846518       0.724651684      -0.626263034
Nuclear contribution   :     -1.903154373      -0.751441563       1.281464252
                        -----------------------------------------
Total Dipole Moment    :      0.242692145      -0.026789879       0.655201217
                        -----------------------------------------
Magnitude (a.u.)       :      0.699217999
Magnitude (Debye)      :      1.777270911

Rotational constants in cm-1:             0.170214             0.032256             0.032050
Rotational constants in MHz :          5102.877848           967.001027           960.832754

                             ****ORCA TERMINATED NORMALLY****
TOTAL RUN TIME: 0 days 0 hours 0 minutes 33 seconds 901 msec
