                         Program Version 6.0.0  -   RELEASE  -
|  1> ! r2scan-3c def2/J RI DEFGRID2 scfconv6 printgap
|  2> %output
|  3>     printlevel normal
|  4> end
|  5> %cpcm
|  6>     smd true
|  7>     smdsolvent "water"
|  8> end
|  9> * xyz 0 1
| 10> C -2.8123602741 -1.1230924191 -0.1092486752
| 11> C -2.5220692472 0.3717773945 -0.0475620423
| 12> C -1.2200800897 0.663329236 0.6985393233
| 13> C -0.0095032342 0.2045222741 -0.074119327
| 14> O 0.0942585597 0.2110440232 -1.2823975197
| 15> O 0.9540193302 -0.2063980652 0.7442038817
| 16> C 2.2068921103 -0.6215841707 0.1747259466
| 17> C 3.1323681503 0.5660781724 -0.0407627453
| 18> H -2.0162368278 -1.6400151049 -0.6414969811
| 19> H -2.8874526501 -1.5407966384 0.8919918058
| 20> H -3.7471592788 -1.3063813509 -0.6320347462
| 21> H -3.3417369289 0.8833451401 0.4574671786
| 22> H -2.4398043156 0.7681106236 -1.061220026
| 23> H -1.204758733 0.1871571017 1.6786743946
| 24> H -1.1083143632 1.7410051012 0.8392765616
| 25> H 2.62042445 -1.3208258758 0.9019334393
| 26> H 2.0075160844 -1.1313969669 -0.772817965
| 27> H 3.2803240655 1.0995977875 0.8941989253
| 28> H 4.0903067313 0.2135123446 -0.4086666375
| 29> H 2.7017345304 1.2456463444 -0.7728757139
| 30> *
| 31>
| 32>                          ****END OF INPUT****

CARTESIAN COORDINATES (ANGSTROEM)
---------------------------------
  C     -2.812360   -1.123092   -0.109249
  C     -2.522069    0.371777   -0.047562
  C     -1.220080    0.663329    0.698539
  C     -0.009503    0.204522   -0.074119
  O      0.094259    0.211044   -1.282398
  O      0.954019   -0.206398    0.744204
  C      2.206892   -0.621584    0.174726
  C      3.132368    0.566078   -0.040763
  H     -2.016237   -1.640015   -0.641497
  H     -2.887453   -1.540797    0.891992
  H     -3.747159   -1.306381   -0.632035
  H     -3.341737    0.883345    0.457467
  H     -2.439804    0.768111   -1.061220
  H     -1.204759    0.187157    1.678674
  H     -1.108314    1.741005    0.839277
  H      2.620424   -1.320826    0.901933
  H      2.007516   -1.131397   -0.772818
  H      3.280324    1.099598    0.894199
  H      4.090307    0.213512   -0.408667
  H      2.701735    1.245646   -0.772876

 Total Charge           Charge          ....    0
 Multiplicity           Mult            ....    1
 Number of Electrons    NEL             ....   64
 Basis Dimension        Dim             ....  222

ORBITAL ENERGIES
----------------

  NO   OCC          E(Eh)            E(eV)
   0   2.0000     -19.001619      -517.0604
   1   2.0000     -18.943657      -515.4831
   2   2.0000     -10.162261      -276.5292
   3   2.0000     -10.082842      -274.3681
   4   2.0000     -10.035280      -273.0739
   5   2.0000     -10.025584      -272.8100
   6   2.0000     -10.018153      -272.6078
   7   2.0000     -10.010505      -272.3997
   8   2.0000      -1.077920       -29.3317
   9   2.0000      -0.989000       -26.9121
  10   2.0000      -0.767699       -20.8901
  11   2.0000      -0.732865       -19.9423
  12   2.0000      -0.672790       -18.3075
  13   2.0000      -0.618693       -16.8355
  14   2.0000      -0.558899       -15.2084
  15   2.0000      -0.516640       -14.0585
  16   2.0000      -0.474380       -12.9085
  17   2.0000      -0.460670       -12.5355
  18   2.0000      -0.443896       -12.0790
  19   2.0000      -0.421391       -11.4666
  20   2.0000      -0.404688       -11.0121
  21   2.0000      -0.384869       -10.4728
  22   2.0000      -0.372553       -10.1377
  23   2.0000      -0.359444        -9.7810
  24   2.0000      -0.348866        -9.4931
  25   2.0000      -0.339592        -9.2408
  26   2.0000      -0.309389        -8.4189
  27   2.0000      -0.305517        -8.3135
  28   2.0000      -0.302073        -8.2198
  29   2.0000      -0.301325        -8.1995
  30   2.0000      -0.278121        -7.5681
  31   2.0000      -0.252413        -6.8685
  32   0.0000      -0.022030        -0.5995
  33   0.0000       0.077378         2.1056
  34   0.0000       0.098177         2.6715
  35   0.0000       0.118289         3.2188
  36   0.0000       0.128562         3.4984

MULLIKEN ATOMIC CHARGES
-----------------------
   0 C :   -0.529658
   1 C :   -0.218759
   2 C :   -0.310938
   3 C :    0.385541
   4 O :   -0.512833
   5 O :   -0.196510
   6 C :   -0.142265
   7 C :   -0.496037
   8 H :    0.160794
   9 H :    0.158888
  10 H :    0.160140
  11 H :    0.160459
  12 H :    0.149699
  13 H :    0.182805
  14 H :    0.199719
  15 H :    0.173446
  16 H :    0.171499
  17 H :    0.165541
  18 H :    0.170042
  19 H :    0.168430
Sum of atomic charges:    0.0000000

LOEWDIN ATOMIC CHARGES
----------------------
   0 C :   -0.424209
   1 C :   -0.298202
   2 C :   -0.229352
   3 C :    0.369086
   4 O :   -0.498416
   5 O :   -0.600218
   6 C :    0.031059
   7 C :   -0.393410
   8 H :    0.156203
   9 H :    0.154922
  10 H :    0.155557
  11 H :    0.159987
  12 H :    0.164421
  13 H :    0.187075
  14 H :    0.195458
  15 H :    0.188863
  16 H :    0.189393
  17 H :    0.161828
  18 H :    0.167625
  19 H :    0.162331

  Mayer bond orders larger than 0.100000
B(  0-C ,  1-C ) :   0.9080 B(  0-C ,  8-H ) :   0.9736 B(  0-C ,  9-H ) :   0.9778
B(  0-C , 10-H ) :   0.9674 B(  1-C ,  2-C ) :   0.8865 B(  1-C , 11-H ) :   0.9595
B(  1-C , 12-H ) :   0.9682 B(  2-C ,  3-C ) :   0.9612 B(  2-C , 13-H ) :   0.9855
B(  2-C , 14-H ) :   0.9116 B(  3-C ,  4-O ) :   1.7763 B(  3-C ,  5-O ) :   1.0794
B(  5-O ,  6-C ) :   0.8000 B(  6-C ,  7-C ) :   0.9362 B(  6-C , 15-H ) :   0.9521
B(  6-C , 16-H ) :   0.9633 B(  7-C , 17-H ) :   0.9697 B(  7-C , 18-H ) :   0.9602
B(  7-C , 19-H ) :   0.9696

Dispersion correction           -0.005088381
FINAL SINGLE POINT ENERGY      -386.241757361327

DIPOLE MOMENT
-------------

Method             : SCF
Type of density    : Electron Density
Multiplicity       :   1
Irrep              :   0
Energy             :  -386.2484273764650311 Eh
Relativity type    :
Basis              : AO
                                X                 Y                 Z
Electronic contribution:      2.207172057       0.710793764      -0.255947357
Nuclear contribution   :     -1.903154373      -0.751441563       1.281464252
                        -----------------------------------------
Total Dipole Moment    :      0.304017685      -0.040647799       1.025516894
                        -----------------------------------------
Magnitude (a.u.)       :      1.070403614
Magnitude (Debye)      :      2.720749765

Rotational constants in cm-1:             0.170214             0.032256             0.032050
Rotational constants in MHz :          5102.877848           967.001027           960.832754

                             ****ORCA TERMINATED NORMALLY****
TOTAL RUN TIME: 0 days 0 hours 0 minutes 39 seconds 247 msec
