                         Program Version 6.0.0  -   RELEASE  -
|  1> ! pbe def2-sv(p) def2/J RI DEFGRID1 loosescf d4 GCP(DFT/SV(P)) printgap
|  2> %output
|  3>     printlevel normal
|  4> end
|  5> * xyz 0 1
|  6> C 1.9216867847 1.1787395834 0.8109974459
|  7> C 1.4116825503 0.2856259666 -0.3076116164
|  8> C 2.4926550751 -0.6444056041 -0.8335663316
|  9> S 0.0030314249 -0.7462692014 0.2969367609
| 10> C -1.4146016182 0.4089505279 0.0316893364
| 11> C -1.9270139419 0.2871140066 -1.3936742088
| 12> C -2.4909211685 0.0856035538 1.0549381597
| 13> H 2.7245975767 1.8137942792 0.4426456923
| 14> H 1.1270602033 1.8143178618 1.1963163324
| 15> H 2.3008049775 0.5696120956 1.6283603546
| 16> H 1.0064315787 0.8875310662 -1.1247797776
| 17> H 2.8592725488 -1.2821594675 -0.0323992421
| 18> H 3.3225630044 -0.0626553389 -1.2281331991
| 19> H 2.0978655719 -1.2785632547 -1.6235569949
| 20> H -1.0161781884 1.4104499299 0.2120383377
| 21> H -1.1355421289 0.4908792197 -2.1119592396
| 22> H -2.2990815332 -0.7196595619 -1.5693129866
| 23> H -2.7356062752 0.9958356142 -1.5597225719
| 24> H -3.3264019241 0.7729857253 0.9440588609
| 25> H -2.0946378283 0.1700930482 2.0638355338
| 26> H -2.8499669355 -0.9309717074 0.9111787229
| 27> *
| 28>
| 29>                          ****END OF INPUT****

CARTESIAN COORDINATES (ANGSTROEM)
---------------------------------
  C      1.921687    1.178740    0.810997
  C      1.411683    0.285626   -0.307612
  C      2.492655   -0.644406   -0.833566
  S      0.003031   -0.746269    0.296937
  C     -1.414602    0.408951    0.031689
  C     -1.927014    0.287114   -1.393674
  C     -2.490921    0.085604    1.054938
  H      2.724598    1.813794    0.442646
  H      1.127060    1.814318    1.196316
  H      2.300805    0.569612    1.628360
  H      1.006432    0.887531   -1.124780
  H      2.859273   -1.282159   -0.032399
  H      3.322563   -0.062655   -1.228133
  H      2.097866   -1.278563   -1.623557
  H     -1.016178    1.410450    0.212038
  H     -1.135542    0.490879   -2.111959
  H     -2.299082   -0.719660   -1.569313
  H     -2.735606    0.995836   -1.559723
  H     -3.326402    0.772986    0.944059
  H     -2.094638    0.170093    2.063836
  H     -2.849967   -0.930972    0.911179

 Total Charge           Charge          ....    0
 Multiplicity           Mult            ....    1
 Number of Electrons    NEL             ....   66
 Basis Dimension        Dim             ....  130

ORBITAL ENERGIES
----------------

  NO   OCC          E(Eh)            E(eV)
   0   2.0000     -88.002412     -2394.6674
   1   2.0000      -9.921958      -269.9902
   2   2.0000      -9.921895      -269.9885
   3   2.0000      -9.878793      -268.8156
   4   2.0000      -9.878776      -268.8151
   5   2.0000      -9.877158      -268.7711
   6   2.0000      -9.877145      -268.7708
   7   2.0000      -7.646305      -208.0665
   8   2.0000      -5.674806      -154.4193
   9   2.0000      -5.671137      -154.3195
  10   2.0000      -5.662610      -154.0875
  11   2.0000      -0.748820       -20.3764
  12   2.0000      -0.713875       -19.4255
  13   2.0000      -0.617151       -16.7935
  14   2.0000      -0.616638       -16.7796
  15   2.0000      -0.613672       -16.6989
  16   2.0000      -0.516615       -14.0578
  17   2.0000      -0.492858       -13.4114
  18   2.0000      -0.428146       -11.6504
  19   2.0000      -0.412966       -11.2374
  20   2.0000      -0.393295       -10.7021
  21   2.0000      -0.370591       -10.0843
  22   2.0000      -0.370481       -10.0813
  23   2.0000      -0.364046        -9.9062
  24   2.0000      -0.344488        -9.3740
  25   2.0000      -0.344348        -9.3702
  26   2.0000      -0.310033        -8.4364
  27   2.0000      -0.307778        -8.3751
  28   2.0000      -0.305890        -8.3237
  29   2.0000      -0.305525        -8.3138
  30   2.0000      -0.280868        -7.6428
  31   2.0000      -0.253518        -6.8986
  32   2.0000      -0.174737        -4.7548
  33   0.0000       0.011660         0.3173
  34   0.0000       0.027488         0.7480
  35   0.0000       0.047513         1.2929
  36   0.0000       0.065812         1.7908
  37   0.0000       0.071549         1.9470

MULLIKEN ATOMIC CHARGES
-----------------------
   0 C :   -0.197725
   1 C :   -0.301628
   2 C :   -0.222246
   3 S :   -0.047002
   4 C :   -0.301468
   5 C :   -0.197865
   6 C :   -0.221813
   7 H :    0.097346
   8 H :    0.104869
   9 H :    0.102997
  10 H :    0.114522
  11 H :    0.107654
  12 H :    0.105965
  13 H :    0.111605
  14 H :    0.114568
  15 H :    0.104907
  16 H :    0.102907
  17 H :    0.097383
  18 H :    0.105627
  19 H :    0.111665
  20 H :    0.107730
Sum of atomic charges:    0.0000000

LOEWDIN ATOMIC CHARGES
----------------------
   0 C :   -0.346570
   1 C :   -0.246201
   2 C :   -0.345017
   3 S :    0.199030
   4 C :   -0.246147
   5 C :   -0.346543
   6 C :   -0.344937
   7 H :    0.117489
   8 H :    0.117140
   9 H :    0.120812
  10 H :    0.117049
  11 H :    0.121567
  12 H :    0.122373
  13 H :    0.121812
  14 H :    0.117059
  15 H :    0.117100
  16 H :    0.120798
  17 H :    0.117491
  18 H :    0.122309
  19 H :    0.121812
  20 H :    0.121574

  Mayer bond orders larger than 0.100000
B(  0-C ,  1-C ) :   1.0801 B(  0-C ,  7-H ) :   0.9371 B(  0-C ,  8-H ) :   0.9455
B(  0-C ,  9-H ) :   0.9477 B(  1-C ,  2-C ) :   1.0975 B(  1-C ,  3-S ) :   1.0141
B(  1-C , 10-H ) :   0.8944 B(  2-C , 11-H ) :   0.9477 B(  2-C , 12-H ) :   0.9464
B(  2-C , 13-H ) :   0.9480 B(  3-S ,  4-C ) :   1.0137 B(  4-C ,  5-C ) :   1.0801
B(  4-C ,  6-C ) :   1.0976 B(  4-C , 14-H ) :   0.8945 B(  5-C , 15-H ) :   0.9455
B(  5-C , 16-H ) :   0.9477 B(  5-C , 17-H ) :   0.9371 B(  6-C , 18-H ) :   0.9464
B(  6-C , 19-H ) :   0.9481 B(  6-C , 20-H ) :   0.9476

Dispersion correction           -0.018447105
FINAL SINGLE POINT ENERGY      -634.347920583409

DIPOLE MOMENT
-------------

Method             : SCF
Type of density    : Electron Density
Multiplicity       :   1
Irrep              :   0
Energy             :  -634.4148716932736534 Eh
Relativity type    :
Basis              : AO
                                X                 Y                 Z
Electronic contribution:      0.015006610      -3.825532474       1.522997709
Nuclear contribution   :     -0.017743421       4.385470146      -1.745543708
                        -----------------------------------------
Total Dipole Moment    :     -0.002736811       0.559937671      -0.222545999
                        -----------------------------------------
Magnitude (a.u.)       :      0.602548262
Magnitude (Debye)      :      1.531555967

Rotational constants in cm-1:             0.119229             0.040086             0.037438
Rotational constants in MHz :          3574.393034          1201.739685          1122.354902

                             ****ORCA TERMINATED NORMALLY****
TOTAL RUN TIME: 0 days 0 hours 0 minutes 9 seconds 364 msec
