                         Program Version 6.0.0  -   RELEASE  -
|  1> ! pbe def2-sv(p) def2/J RI DEFGRID1 loosescf d4 GCP(DFT/SV(P)) printgap
|  2> %output
|  3>     printlevel normal
|  4> end
|  5> * xyz 0 1
|  6> C -3.250971608 -0.173592049 0.9896021656
|  7> C -2.6907010366 -0.4370687745 -0.4036082493
|  8> C -1.1710108869 -0.6032473864 -0.4197959513
|  9> C -0.4386474063 0.689948139 -0.0532204383
| 10> C 1.0574260852 0.5643825361 -0.1566956583
| 11> O 1.7914900172 1.4281955149 -0.5937259268
| 12> O 1.5047371249 -0.5994038253 0.2988735634
| 13> C 2.915395362 -0.8263461151 0.263429672
| 14> H -4.3376992144 -0.1689763783 0.9611770505
| 15> H -2.9294624248 -0.9487768684 1.6811314951
| 16> H -2.9208592103 0.7893003242 1.369772594
| 17> H -3.1369446209 -1.3527274701 -0.7962003568
| 18> H -2.9721877427 0.3804903662 -1.0702126944
| 19> H -0.8594712441 -0.912029073 -1.4198247823
| 20> H -0.8805028667 -1.3892703125 0.2781370466
| 21> H -0.6616821728 0.9599583301 0.9810774382
| 22> H -0.7497121525 1.5141909472 -0.6964066164
| 23> H 3.0508819927 -1.8707510119 0.5260625387
| 24> H 3.4147412767 -0.1751182734 0.9817412061
| 25> H 3.3031890371 -0.6167864609 -0.7342408186
| 26> *
| 27>
| 28>                          ****END OF INPUT****

CARTESIAN COORDINATES (ANGSTROEM)
---------------------------------
  C     -3.250972   -0.173592    0.989602
  C     -2.690701   -0.437069   -0.403608
  C     -1.171011   -0.603247   -0.419796
  C     -0.438647    0.689948   -0.053220
  C      1.057426    0.564383   -0.156696
  O      1.791490    1.428196   -0.593726
  O      1.504737   -0.599404    0.298874
  C      2.915395   -0.826346    0.263430
  H     -4.337699   -0.168976    0.961177
  H     -2.929462   -0.948777    1.681131
  H     -2.920859    0.789300    1.369773
  H     -3.136945   -1.352727   -0.796200
  H     -2.972188    0.380490   -1.070213
  H     -0.859471   -0.912029   -1.419825
  H     -0.880503   -1.389270    0.278137
  H     -0.661682    0.959958    0.981077
  H     -0.749712    1.514191   -0.696407
  H      3.050882   -1.870751    0.526063
  H      3.414741   -0.175118    0.981741
  H      3.303189   -0.616786   -0.734241

 Total Charge           Charge          ....    0
 Multiplicity           Mult            ....    1
 Number of Electrons    NEL             ....   64
 Basis Dimension        Dim             ....  136

ORBITAL ENERGIES
----------------

  NO   OCC          E(Eh)            E(eV)
   0   2.0000     -18.798681      -511.5381
   1   2.0000     -18.729814      -509.6641
   2   2.0000     -10.001862      -272.1645
   3   2.0000      -9.940510      -270.4950
   4   2.0000      -9.895870      -269.2803
   5   2.0000      -9.889452      -269.1057
   6   2.0000      -9.887496      -269.0524
   7   2.0000      -9.877453      -268.7792
   8   2.0000      -1.004581       -27.3360
   9   2.0000      -0.905402       -24.6372
  10   2.0000      -0.733013       -19.9463
  11   2.0000      -0.684650       -18.6303
  12   2.0000      -0.642010       -17.4700
  13   2.0000      -0.588063       -16.0020
  14   2.0000      -0.515630       -14.0310
  15   2.0000      -0.507688       -13.8149
  16   2.0000      -0.450956       -12.2711
  17   2.0000      -0.441383       -12.0107
  18   2.0000      -0.417070       -11.3490
  19   2.0000      -0.410483       -11.1698
  20   2.0000      -0.387101       -10.5335
  21   2.0000      -0.375138       -10.2080
  22   2.0000      -0.364534        -9.9195
  23   2.0000      -0.356274        -9.6947
  24   2.0000      -0.330368        -8.9898
  25   2.0000      -0.325135        -8.8474
  26   2.0000      -0.306257        -8.3337
  27   2.0000      -0.294866        -8.0237
  28   2.0000      -0.287879        -7.8336
  29   2.0000      -0.286434        -7.7943
  30   2.0000      -0.256663        -6.9842
  31   2.0000      -0.212621        -5.7857
  32   0.0000      -0.016725        -0.4551
  33   0.0000       0.035260         0.9595
  34   0.0000       0.057329         1.5600
  35   0.0000       0.065651         1.7865
  36   0.0000       0.069013         1.8779

MULLIKEN ATOMIC CHARGES
-----------------------
   0 C :   -0.298466
   1 C :   -0.153392
   2 C :   -0.190594
   3 C :   -0.159605
   4 C :    0.108132
   5 O :   -0.206492
   6 O :   -0.242423
   7 C :   -0.108583
   8 H :    0.105785
   9 H :    0.099555
  10 H :    0.109574
  11 H :    0.087233
  12 H :    0.084120
  13 H :    0.089951
  14 H :    0.096962
  15 H :    0.118282
  16 H :    0.100308
  17 H :    0.120250
  18 H :    0.118247
  19 H :    0.121158
Sum of atomic charges:   -0.0000000

LOEWDIN ATOMIC CHARGES
----------------------
   0 C :   -0.343850
   1 C :   -0.233799
   2 C :   -0.226647
   3 C :   -0.244939
   4 C :    0.033643
   5 O :   -0.170867
   6 O :   -0.072413
   7 C :   -0.203298
   8 H :    0.121400
   9 H :    0.117763
  10 H :    0.116624
  11 H :    0.117467
  12 H :    0.114892
  13 H :    0.118522
  14 H :    0.119272
  15 H :    0.141597
  16 H :    0.135008
  17 H :    0.119858
  18 H :    0.119166
  19 H :    0.120603

  Mayer bond orders larger than 0.100000
B(  0-C ,  1-C ) :   1.1505 B(  0-C ,  8-H ) :   0.9515 B(  0-C ,  9-H ) :   0.9550
B(  0-C , 10-H ) :   0.9510 B(  1-C ,  2-C ) :   1.1259 B(  1-C , 11-H ) :   0.9273
B(  1-C , 12-H ) :   0.9238 B(  2-C ,  3-C ) :   1.1144 B(  2-C , 13-H ) :   0.9294
B(  2-C , 14-H ) :   0.9126 B(  3-C ,  4-C ) :   1.0398 B(  3-C , 15-H ) :   0.8826
B(  3-C , 16-H ) :   0.9101 B(  4-C ,  5-O ) :   2.0739 B(  4-C ,  6-O ) :   1.1997
B(  6-O ,  7-C ) :   0.9414 B(  7-C , 17-H ) :   0.9588 B(  7-C , 18-H ) :   0.9556
B(  7-C , 19-H ) :   0.9479

Dispersion correction           -0.014947142
FINAL SINGLE POINT ENERGY      -385.451362911008

DIPOLE MOMENT
-------------

Method             : SCF
Type of density    : Electron Density
Multiplicity       :   1
Irrep              :   0
Energy             :  -385.5264216803929571 Eh
Relativity type    :
Basis              : AO
                                X                 Y                 Z
Electronic contribution:      8.836485653       2.843409672      -1.624787748
Nuclear contribution   :     -9.032303953      -3.543827546       1.930328475
                        -----------------------------------------
Total Dipole Moment    :     -0.195818300      -0.700417874       0.305540727
                        -----------------------------------------
Magnitude (a.u.)       :      0.788850519
Magnitude (Debye)      :      2.005098672

Rotational constants in cm-1:             0.152557             0.030186             0.027674
Rotational constants in MHz :          4573.549336           904.962441           829.649381

                             ****ORCA TERMINATED NORMALLY****
TOTAL RUN TIME: 0 days 0 hours 0 minutes 9 seconds 595 msec
