                         Program Version 6.0.0  -   RELEASE  -
|  1> ! r2scan-3c def2/J RI DEFGRID2 scfconv6 printgap
|  2> %output
|  3>     printlevel normal
|  4> end
|  5> * xyz 0 1
|  6> C 2.1251060495 -0.3393890459 0.5861147048
|  7> C 1.3849189938 0.4527939139 -0.4858860652
|  8> C -0.0375725699 -0.0488947205 -0.7328646746
|  9> C -0.9816489855 0.2059806365 0.4407657346
| 10> N -2.3186344607 -0.2801217963 0.1211742883
| 11> H 2.1319301347 -1.3978173536 0.3370208097
| 12> H 3.1542414913 0.0032779055 0.6626940397
| 13> H 1.653884103 -0.2172449243 1.5575946912
| 14> H 1.3507799957 1.5069973957 -0.2003023367
| 15> H 1.9418064656 0.3822350846 -1.4226722065
| 16> H -0.4423337323 0.4543033039 -1.6148566193
| 17> H -0.0227694024 -1.1194429512 -0.9410380928
| 18> H -0.9625113454 1.2824747072 0.6886457844
| 19> H -0.6413508727 -0.3457752136 1.3202512054
| 20> H -2.6798442179 0.2223493354 -0.6831897069
| 21> H -2.9445166082 -0.1019286179 0.8983946218
| 22> *
| 23>
| 24>                          ****END OF INPUT****

CARTESIAN COORDINATES (ANGSTROEM)
---------------------------------
  C      2.125106   -0.339389    0.586115
  C      1.384919    0.452794   -0.485886
  C     -0.037573   -0.048895   -0.732865
  C     -0.981649    0.205981    0.440766
  N     -2.318634   -0.280122    0.121174
  H      2.131930   -1.397817    0.337021
  H      3.154241    0.003278    0.662694
  H      1.653884   -0.217245    1.557595
  H      1.350780    1.506997   -0.200302
  H      1.941806    0.382235   -1.422672
  H     -0.442334    0.454303   -1.614857
  H     -0.022769   -1.119443   -0.941038
  H     -0.962511    1.282475    0.688646
  H     -0.641351   -0.345775    1.320251
  H     -2.679844    0.222349   -0.683190
  H     -2.944517   -0.101929    0.898395

 Total Charge           Charge          ....    0
 Multiplicity           Mult            ....    1
 Number of Electrons    NEL             ....   42
 Basis Dimension        Dim             ....  155

ORBITAL ENERGIES
----------------

  NO   OCC          E(Eh)            E(eV)
   0   2.0000     -14.133465      -384.5911
   1   2.0000     -10.046879      -273.3895
   2   2.0000     -10.023728      -272.7595
   3   2.0000     -10.019638      -272.6482
   4   2.0000     -10.014347      -272.5042
   5   2.0000      -0.844816       -22.9886
   6   2.0000      -0.752102       -20.4657
   7   2.0000      -0.668100       -18.1799
   8   2.0000      -0.592696       -16.1281
   9   2.0000      -0.534455       -14.5433
  10   2.0000      -0.455879       -12.4051
  11   2.0000      -0.431033       -11.7290
  12   2.0000      -0.412664       -11.2292
  13   2.0000      -0.400243       -10.8912
  14   2.0000      -0.363368        -9.8877
  15   2.0000      -0.341927        -9.3043
  16   2.0000      -0.335267        -9.1231
  17   2.0000      -0.298866        -8.1326
  18   2.0000      -0.296230        -8.0608
  19   2.0000      -0.286448        -7.7947
  20   2.0000      -0.203823        -5.5463
  21   0.0000       0.076041         2.0692
  22   0.0000       0.092133         2.5071
  23   0.0000       0.115734         3.1493
  24   0.0000       0.134286         3.6541
  25   0.0000       0.139005         3.7825

MULLIKEN ATOMIC CHARGES
-----------------------
   0 C :   -0.483126
   1 C :   -0.240454
   2 C :   -0.209769
   3 C :   -0.244099
   4 N :   -0.543659
   5 H :    0.145036
   6 H :    0.145675
   7 H :    0.145204
   8 H :    0.130641
   9 H :    0.140205
  10 H :    0.126507
  11 H :    0.150337
  12 H :    0.122530
  13 H :    0.141405
  14 H :    0.236096
  15 H :    0.237469
Sum of atomic charges:   -0.0000000

LOEWDIN ATOMIC CHARGES
----------------------
   0 C :   -0.426738
   1 C :   -0.318681
   2 C :   -0.286201
   3 C :   -0.074408
   4 N :   -0.747327
   5 H :    0.151078
   6 H :    0.150470
   7 H :    0.148302
   8 H :    0.151094
   9 H :    0.152187
  10 H :    0.153031
  11 H :    0.161116
  12 H :    0.145900
  13 H :    0.170272
  14 H :    0.234635
  15 H :    0.235270

  Mayer bond orders larger than 0.100000
B(  0-C ,  1-C ) :   0.9066 B(  0-C ,  5-H ) :   0.9804 B(  0-C ,  6-H ) :   0.9714
B(  0-C ,  7-H ) :   0.9823 B(  1-C ,  2-C ) :   0.9037 B(  1-C ,  8-H ) :   0.9787
B(  1-C ,  9-H ) :   0.9681 B(  2-C ,  3-C ) :   0.9097 B(  2-C , 10-H ) :   0.9563
B(  2-C , 11-H ) :   0.9736 B(  3-C ,  4-N ) :   0.9355 B(  3-C , 12-H ) :   0.9745
B(  3-C , 13-H ) :   0.9864 B(  4-N , 14-H ) :   0.9210 B(  4-N , 15-H ) :   0.9195

Dispersion correction           -0.003428076
FINAL SINGLE POINT ENERGY      -213.722536445438

DIPOLE MOMENT
-------------

Method             : SCF
Type of density    : Electron Density
Multiplicity       :   1
Irrep              :   0
Energy             :  -213.7296404991870133 Eh
Relativity type    :
Basis              : AO
                                X                 Y                 Z
Electronic contribution:     -2.398175715      -0.154802156      -0.502769395
Nuclear contribution   :      2.369620830       0.626502072       0.565944499
                        -----------------------------------------
Total Dipole Moment    :     -0.028554884       0.471699915       0.063175103
                        -----------------------------------------
Magnitude (a.u.)       :      0.476767538
Magnitude (Debye)      :      1.211846774

Rotational constants in cm-1:             0.408676             0.077912             0.071906
Rotational constants in MHz :         12251.809672          2335.735757          2155.701258

                             ****ORCA TERMINATED NORMALLY****
TOTAL RUN TIME: 0 days 0 hours 0 minutes 17 seconds 565 msec
