                         Program Version 6.0.0  -   RELEASE  -
|  1> ! r2scan-3c def2/J RI DEFGRID2 scfconv6 printgap
|  2> %output
|  3>     printlevel normal
|  4> end
|  5> %cpcm
|  6>     smd true
|  7>     smdsolvent "water"
|  8> end
|  9> * xyz 0 1
| 10> C 2.1251060495 -0.3393890459 0.5861147048
| 11> C 1.3849189938 0.4527939139 -0.4858860652
| 12> C -0.0375725699 -0.0488947205 -0.7328646746
| 13> C -0.9816489855 0.2059806365 0.4407657346
| 14> N -2.3186344607 -0.2801217963 0.1211742883
| 15> H 2.1319301347 -1.3978173536 0.3370208097
| 16> H 3.1542414913 0.0032779055 0.6626940397
| 17> H 1.653884103 -0.2172449243 1.5575946912
| 18> H 1.3507799957 1.5069973957 -0.2003023367
| 19> H 1.9418064656 0.3822350846 -1.4226722065
| 20> H -0.4423337323 0.4543033039 -1.6148566193
| 21> H -0.0227694024 -1.1194429512 -0.9410380928
| 22> H -0.9625113454 1.2824747072 0.6886457844
| 23> H -0.6413508727 -0.3457752136 1.3202512054
| 24> H -2.6798442179 0.2223493354 -0.6831897069
| 25> H -2.9445166082 -0.1019286179 0.8983946218
| 26> *
| 27>
| 28>                          ****END OF INPUT****

CARTESIAN COORDINATES (ANGSTROEM)
---------------------------------
  C      2.125106   -0.339389    0.586115
  C      1.384919    0.452794   -0.485886
  C     -0.037573   -0.048895   -0.732865
  C     -0.981649    0.205981    0.440766
  N     -2.318634   -0.280122    0.121174
  H      2.131930   -1.397817    0.337021
  H      3.154241    0.003278    0.662694
  H      1.653884   -0.217245    1.557595
  H      1.350780    1.506997   -0.200302
  H      1.941806    0.382235   -1.422672
  H     -0.442334    0.454303   -1.614857
  H     -0.022769   -1.119443   -0.941038
  H     -0.962511    1.282475    0.688646
  H     -0.641351   -0.345775    1.320251
  H     -2.679844    0.222349   -0.683190
  H     -2.944517   -0.101929    0.898395

 Total Charge           Charge          ....    0
 Multiplicity           Mult            ....    1
 Number of Electrons    NEL             ....   42
 Basis Dimension        Dim             ....  155

ORBITAL ENERGIES
----------------

  NO   OCC          E(Eh)            E(eV)
   0   2.0000     -14.127541      -384.4299
   1   2.0000     -10.040162      -273.2067
   2   2.0000     -10.016644      -272.5667
   3   2.0000     -10.013419      -272.4790
   4   2.0000     -10.006616      -272.2939
   5   2.0000      -0.839057       -22.8319
   6   2.0000      -0.745370       -20.2826
   7   2.0000      -0.661594       -18.0029
   8   2.0000      -0.585933       -15.9440
   9   2.0000      -0.528128       -14.3711
  10   2.0000      -0.448859       -12.2141
  11   2.0000      -0.424584       -11.5535
  12   2.0000      -0.405718       -11.0402
  13   2.0000      -0.393356       -10.7038
  14   2.0000      -0.356834        -9.7100
  15   2.0000      -0.334659        -9.1065
  16   2.0000      -0.329104        -8.9554
  17   2.0000      -0.292278        -7.9533
  18   2.0000      -0.289550        -7.8791
  19   2.0000      -0.279062        -7.5937
  20   2.0000      -0.204679        -5.5696
  21   0.0000       0.086672         2.3585
  22   0.0000       0.100016         2.7216
  23   0.0000       0.124486         3.3874
  24   0.0000       0.140609         3.8262
  25   0.0000       0.145560         3.9609

MULLIKEN ATOMIC CHARGES
-----------------------
   0 C :   -0.520591
   1 C :   -0.256059
   2 C :   -0.223747
   3 C :   -0.264330
   4 N :   -0.632858
   5 H :    0.153783
   6 H :    0.155498
   7 H :    0.158161
   8 H :    0.141498
   9 H :    0.148968
  10 H :    0.146077
  11 H :    0.146108
  12 H :    0.132514
  13 H :    0.155630
  14 H :    0.279740
  15 H :    0.279609
Sum of atomic charges:   -0.0000000

LOEWDIN ATOMIC CHARGES
----------------------
   0 C :   -0.435136
   1 C :   -0.320475
   2 C :   -0.291809
   3 C :   -0.076515
   4 N :   -0.770512
   5 H :    0.152757
   6 H :    0.152619
   7 H :    0.151656
   8 H :    0.154157
   9 H :    0.154250
  10 H :    0.158165
  11 H :    0.157818
  12 H :    0.151196
  13 H :    0.173039
  14 H :    0.244108
  15 H :    0.244681

  Mayer bond orders larger than 0.100000
B(  0-C ,  1-C ) :   0.8986 B(  0-C ,  5-H ) :   0.9787 B(  0-C ,  6-H ) :   0.9690
B(  0-C ,  7-H ) :   0.9786 B(  1-C ,  2-C ) :   0.9006 B(  1-C ,  8-H ) :   0.9797
B(  1-C ,  9-H ) :   0.9683 B(  2-C ,  3-C ) :   0.8961 B(  2-C , 10-H ) :   0.9569
B(  2-C , 11-H ) :   0.9698 B(  3-C ,  4-N ) :   0.9479 B(  3-C , 12-H ) :   0.9787
B(  3-C , 13-H ) :   0.9858 B(  4-N , 14-H ) :   0.9047 B(  4-N , 15-H ) :   0.9035

Dispersion correction           -0.003428076
FINAL SINGLE POINT ENERGY      -213.727822817667

DIPOLE MOMENT
-------------

Method             : SCF
Type of density    : Electron Density
Multiplicity       :   1
Irrep              :   0
Energy             :  -213.7349268714161497 Eh
Relativity type    :
Basis              : AO
                                X                 Y                 Z
Electronic contribution:     -2.414326528       0.053537669      -0.467346222
Nuclear contribution   :      2.369620830       0.626502072       0.565944499
                        -----------------------------------------
Total Dipole Moment    :     -0.044705698       0.680039741       0.098598277
                        -----------------------------------------
Magnitude (a.u.)       :      0.688603129
Magnitude (Debye)      :      1.750290055

Rotational constants in cm-1:             0.408676             0.077912             0.071906
Rotational constants in MHz :         12251.809672          2335.735757          2155.701258

                             ****ORCA TERMINATED NORMALLY****
TOTAL RUN TIME: 0 days 0 hours 0 minutes 21 seconds 417 msec
