                         Program Version 6.0.0  -   RELEASE  -
|  1> ! pbe def2-sv(p) def2/J RI DEFGRID1 loosescf d4 GCP(DFT/SV(P)) printgap
|  2> %output
|  3>     printlevel normal
|  4> end
|  5> * xyz 0 1
|  6> C -0.067414179 1.2417744841 0.4503010164
|  7> C -0.9186509286 0.6865664963 -0.6941883832
|  8> Cl -2.0688007569 -0.5717637962 -0.1129728799
|  9> C 1.4239139903 1.078537216 0.2062044262
| 10> Cl 1.8837439832 -0.6662144565 0.1363821216
| 11> H -0.2665171475 2.306344748 0.5748728989
| 12> H -0.3346893362 0.742355952 1.381672197
| 13> H -1.5327655277 1.4518572169 -1.161537852
| 14> H -0.3025356974 0.1928460029 -1.4433085512
| 15> H 2.0023520923 1.5105764185 1.0195791196
| 16> H 1.7258178029 1.5099113937 -0.7456317015
| 17> *
| 18>
| 19>                          ****END OF INPUT****

CARTESIAN COORDINATES (ANGSTROEM)
---------------------------------
  C     -0.067414    1.241774    0.450301
  C     -0.918651    0.686566   -0.694188
  Cl    -2.068801   -0.571764   -0.112973
  C      1.423914    1.078537    0.206204
  Cl     1.883744   -0.666214    0.136382
  H     -0.266517    2.306345    0.574873
  H     -0.334689    0.742356    1.381672
  H     -1.532766    1.451857   -1.161538
  H     -0.302536    0.192846   -1.443309
  H      2.002352    1.510576    1.019579
  H      1.725818    1.509911   -0.745632

 Total Charge           Charge          ....    0
 Multiplicity           Mult            ....    1
 Number of Electrons    NEL             ....   58
 Basis Dimension        Dim             ....   90

ORBITAL ENERGIES
----------------

  NO   OCC          E(Eh)            E(eV)
   0   2.0000    -100.624307     -2738.1266
   1   2.0000    -100.617293     -2737.9357
   2   2.0000      -9.952935      -270.8331
   3   2.0000      -9.946282      -270.6521
   4   2.0000      -9.913992      -269.7734
   5   2.0000      -9.159875      -249.2529
   6   2.0000      -9.153050      -249.0672
   7   2.0000      -6.991548      -190.2497
   8   2.0000      -6.984838      -190.0671
   9   2.0000      -6.979566      -189.9236
  10   2.0000      -6.979408      -189.9193
  11   2.0000      -6.972686      -189.7364
  12   2.0000      -6.972461      -189.7303
  13   2.0000      -0.792433       -21.5632
  14   2.0000      -0.764978       -20.8161
  15   2.0000      -0.686398       -18.6778
  16   2.0000      -0.598949       -16.2982
  17   2.0000      -0.540607       -14.7107
  18   2.0000      -0.445708       -12.1283
  19   2.0000      -0.434330       -11.8187
  20   2.0000      -0.403765       -10.9870
  21   2.0000      -0.377509       -10.2725
  22   2.0000      -0.352787        -9.5998
  23   2.0000      -0.343934        -9.3589
  24   2.0000      -0.324608        -8.8330
  25   2.0000      -0.257647        -7.0109
  26   2.0000      -0.252659        -6.8752
  27   2.0000      -0.244030        -6.6404
  28   2.0000      -0.241436        -6.5698
  29   0.0000      -0.003777        -0.1028
  30   0.0000       0.003748         0.1020
  31   0.0000       0.034028         0.9259
  32   0.0000       0.065022         1.7693
  33   0.0000       0.070434         1.9166

MULLIKEN ATOMIC CHARGES
-----------------------
   0 C :   -0.134852
   1 C :   -0.173368
   2 Cl:   -0.153777
   3 C :   -0.201300
   4 Cl:   -0.142978
   5 H :    0.107319
   6 H :    0.125571
   7 H :    0.138624
   8 H :    0.147325
   9 H :    0.144293
  10 H :    0.143144
Sum of atomic charges:    0.0000000

LOEWDIN ATOMIC CHARGES
----------------------
   0 C :   -0.271632
   1 C :   -0.277299
   2 Cl:    0.026159
   3 C :   -0.270426
   4 Cl:    0.025806
   5 H :    0.132426
   6 H :    0.130686
   7 H :    0.126711
   8 H :    0.123520
   9 H :    0.129112
  10 H :    0.124936

  Mayer bond orders larger than 0.100000
B(  0-C ,  1-C ) :   1.0587 B(  0-C ,  3-C ) :   1.1053 B(  0-C ,  5-H ) :   0.9081
B(  0-C ,  6-H ) :   0.9196 B(  1-C ,  2-Cl) :   1.0370 B(  1-C ,  7-H ) :   0.9323
B(  1-C ,  8-H ) :   0.9345 B(  3-C ,  4-Cl) :   1.0357 B(  3-C ,  9-H ) :   0.9284
B(  3-C , 10-H ) :   0.9281

Dispersion correction           -0.009254694
FINAL SINGLE POINT ENERGY     -1037.355717153193

DIPOLE MOMENT
-------------

Method             : SCF
Type of density    : Electron Density
Multiplicity       :   1
Irrep              :   0
Energy             : -1037.3918404736753018 Eh
Relativity type    :
Basis              : AO
                                X                 Y                 Z
Electronic contribution:     -1.194642240      -7.768715553       0.259694174
Nuclear contribution   :      1.460186874       8.898584338      -0.382629249
                        -----------------------------------------
Total Dipole Moment    :      0.265544634       1.129868785      -0.122935076
                        -----------------------------------------
Magnitude (a.u.)       :      1.167146287
Magnitude (Debye)      :      2.966650099

Rotational constants in cm-1:             0.183488             0.049690             0.041823
Rotational constants in MHz :          5500.823176          1489.664677          1253.809947

                             ****ORCA TERMINATED NORMALLY****
TOTAL RUN TIME: 0 days 0 hours 0 minutes 6 seconds 387 msec
