                         Program Version 6.0.0  -   RELEASE  -
|  1> ! r2scan-3c def2/J RI DEFGRID2 scfconv6 printgap
|  2> %output
|  3>     printlevel normal
|  4> end
|  5> * xyz 0 1
|  6> C -2.1728110121 -1.384773296 0.4932367824
|  7> C -2.0584227849 -0.4245583027 -0.6843468192
|  8> C -1.4701726251 0.9275690971 -0.2605703109
|  9> C -0.0477882547 0.7746420071 0.2138015655
| 10> O 0.3359436007 1.0050463542 1.3422184866
| 11> O 0.7495572268 0.3635680758 -0.7640199763
| 12> C 2.1355793379 0.1310683169 -0.4674135167
| 13> C 2.3561218544 -1.2822271095 0.0502203159
| 14> H -2.5843057252 -2.3367130895 0.1686694588
| 15> H -1.1965186888 -1.5649235051 0.939368893
| 16> H -2.8217189147 -0.9706171008 1.2614136715
| 17> H -3.0472816046 -0.2534984147 -1.1109903117
| 18> H -1.4227702469 -0.8587629 -1.4572740271
| 19> H -2.0543464261 1.3629672777 0.549979159
| 20> H -1.4673068275 1.6044713745 -1.1153566519
| 21> H 2.6503144649 0.2910226351 -1.4152649431
| 22> H 2.4628368223 0.8677284754 0.2727349375
| 23> H 1.9741196165 -2.0069405432 -0.663756344
| 24> H 3.4178812547 -1.449861297 0.1981432346
| 25> H 1.843230915 -1.41551801 1.0004114453
| 26> *
| 27>
| 28>                          ****END OF INPUT****

CARTESIAN COORDINATES (ANGSTROEM)
---------------------------------
  C     -2.172811   -1.384773    0.493237
  C     -2.058423   -0.424558   -0.684347
  C     -1.470173    0.927569   -0.260570
  C     -0.047788    0.774642    0.213802
  O      0.335944    1.005046    1.342218
  O      0.749557    0.363568   -0.764020
  C      2.135579    0.131068   -0.467414
  C      2.356122   -1.282227    0.050220
  H     -2.584306   -2.336713    0.168669
  H     -1.196519   -1.564924    0.939369
  H     -2.821719   -0.970617    1.261414
  H     -3.047282   -0.253498   -1.110990
  H     -1.422770   -0.858763   -1.457274
  H     -2.054346    1.362967    0.549979
  H     -1.467307    1.604471   -1.115357
  H      2.650314    0.291023   -1.415265
  H      2.462837    0.867728    0.272735
  H      1.974120   -2.006941   -0.663756
  H      3.417881   -1.449861    0.198143
  H      1.843231   -1.415518    1.000411

 Total Charge           Charge          ....    0
 Multiplicity           Mult            ....    1
 Number of Electrons    NEL             ....   64
 Basis Dimension        Dim             ....  222

ORBITAL ENERGIES
----------------

  NO   OCC          E(Eh)            E(eV)
   0   2.0000     -18.995981      -516.9069
   1   2.0000     -18.927018      -515.0303
   2   2.0000     -10.150946      -276.2213
   3   2.0000     -10.091348      -274.5995
   4   2.0000     -10.040489      -273.2156
   5   2.0000     -10.036949      -273.1193
   6   2.0000     -10.029470      -272.9158
   7   2.0000     -10.020085      -272.6604
   8   2.0000      -1.071143       -29.1473
   9   2.0000      -0.974293       -26.5119
  10   2.0000      -0.775636       -21.1061
  11   2.0000      -0.738466       -20.0947
  12   2.0000      -0.677518       -18.4362
  13   2.0000      -0.623693       -16.9716
  14   2.0000      -0.570812       -15.5326
  15   2.0000      -0.521626       -14.1942
  16   2.0000      -0.472058       -12.8454
  17   2.0000      -0.456975       -12.4349
  18   2.0000      -0.433147       -11.7865
  19   2.0000      -0.423182       -11.5154
  20   2.0000      -0.410340       -11.1659
  21   2.0000      -0.394288       -10.7291
  22   2.0000      -0.372730       -10.1425
  23   2.0000      -0.369218       -10.0469
  24   2.0000      -0.351123        -9.5545
  25   2.0000      -0.341545        -9.2939
  26   2.0000      -0.324137        -8.8202
  27   2.0000      -0.312313        -8.4985
  28   2.0000      -0.310405        -8.4465
  29   2.0000      -0.304909        -8.2970
  30   2.0000      -0.270457        -7.3595
  31   2.0000      -0.231849        -6.3089
  32   0.0000      -0.014903        -0.4055
  33   0.0000       0.073903         2.0110
  34   0.0000       0.087963         2.3936
  35   0.0000       0.107597         2.9279
  36   0.0000       0.120262         3.2725

MULLIKEN ATOMIC CHARGES
-----------------------
   0 C :   -0.480485
   1 C :   -0.228906
   2 C :   -0.315653
   3 C :    0.363217
   4 O :   -0.424455
   5 O :   -0.174786
   6 C :   -0.131691
   7 C :   -0.471921
   8 H :    0.147501
   9 H :    0.154165
  10 H :    0.149116
  11 H :    0.145585
  12 H :    0.152923
  13 H :    0.168370
  14 H :    0.158025
  15 H :    0.147682
  16 H :    0.169314
  17 H :    0.152545
  18 H :    0.147736
  19 H :    0.171716
Sum of atomic charges:   -0.0000000

LOEWDIN ATOMIC CHARGES
----------------------
   0 C :   -0.415067
   1 C :   -0.292948
   2 C :   -0.230330
   3 C :    0.352400
   4 O :   -0.432095
   5 O :   -0.599395
   6 C :    0.027700
   7 C :   -0.391852
   8 H :    0.151796
   9 H :    0.155815
  10 H :    0.153491
  11 H :    0.153302
  12 H :    0.163467
  13 H :    0.177119
  14 H :    0.179390
  15 H :    0.177582
  16 H :    0.188840
  17 H :    0.156917
  18 H :    0.159450
  19 H :    0.164417

  Mayer bond orders larger than 0.100000
B(  0-C ,  1-C ) :   0.9136 B(  0-C ,  8-H ) :   0.9702 B(  0-C ,  9-H ) :   0.9701
B(  0-C , 10-H ) :   0.9774 B(  1-C ,  2-C ) :   0.8822 B(  1-C , 11-H ) :   0.9636
B(  1-C , 12-H ) :   0.9743 B(  2-C ,  3-C ) :   0.9615 B(  2-C , 13-H ) :   1.0032
B(  2-C , 14-H ) :   0.9463 B(  3-C ,  4-O ) :   1.8508 B(  3-C ,  5-O ) :   1.0327
B(  5-O ,  6-C ) :   0.8199 B(  6-C ,  7-C ) :   0.9306 B(  6-C , 15-H ) :   0.9625
B(  6-C , 16-H ) :   0.9686 B(  7-C , 17-H ) :   0.9737 B(  7-C , 18-H ) :   0.9647
B(  7-C , 19-H ) :   0.9722

Dispersion correction           -0.005326594
FINAL SINGLE POINT ENERGY      -386.236149609851

DIPOLE MOMENT
-------------

Method             : SCF
Type of density    : Electron Density
Multiplicity       :   1
Irrep              :   0
Energy             :  -386.2425406675259865 Eh
Relativity type    :
Basis              : AO
                                X                 Y                 Z
Electronic contribution:      2.130473162       5.920265252       0.520928939
Nuclear contribution   :     -2.090900104      -6.294173049      -1.278517420
                        -----------------------------------------
Total Dipole Moment    :      0.039573059      -0.373907797      -0.757588481
                        -----------------------------------------
Magnitude (a.u.)       :      0.845762008
Magnitude (Debye)      :      2.149756181

Rotational constants in cm-1:             0.101694             0.042896             0.038524
Rotational constants in MHz :          3048.699159          1285.998565          1154.912729

                             ****ORCA TERMINATED NORMALLY****
TOTAL RUN TIME: 0 days 0 hours 0 minutes 32 seconds 502 msec
