                         Program Version 6.0.0  -   RELEASE  -
|  1> ! r2scan-3c def2/J RI DEFGRID2 scfconv6 printgap
|  2> %output
|  3>     printlevel normal
|  4> end
|  5> %cpcm
|  6>     smd true
|  7>     smdsolvent "water"
|  8> end
|  9> * xyz 0 1
| 10> C -2.1728110121 -1.384773296 0.4932367824
| 11> C -2.0584227849 -0.4245583027 -0.6843468192
| 12> C -1.4701726251 0.9275690971 -0.2605703109
| 13> C -0.0477882547 0.7746420071 0.2138015655
| 14> O 0.3359436007 1.0050463542 1.3422184866
| 15> O 0.7495572268 0.3635680758 -0.7640199763
| 16> C 2.1355793379 0.1310683169 -0.4674135167
| 17> C 2.3561218544 -1.2822271095 0.0502203159
| 18> H -2.5843057252 -2.3367130895 0.1686694588
| 19> H -1.1965186888 -1.5649235051 0.939368893
| 20> H -2.8217189147 -0.9706171008 1.2614136715
| 21> H -3.0472816046 -0.2534984147 -1.1109903117
| 22> H -1.4227702469 -0.8587629 -1.4572740271
| 23> H -2.0543464261 1.3629672777 0.549979159
| 24> H -1.4673068275 1.6044713745 -1.1153566519
| 25> H 2.6503144649 0.2910226351 -1.4152649431
| 26> H 2.4628368223 0.8677284754 0.2727349375
| 27> H 1.9741196165 -2.0069405432 -0.663756344
| 28> H 3.4178812547 -1.449861297 0.1981432346
| 29> H 1.843230915 -1.41551801 1.0004114453
| 30> *
| 31>
| 32>                          ****END OF INPUT****

CARTESIAN COORDINATES (ANGSTROEM)
---------------------------------
  C     -2.172811   -1.384773    0.493237
  C     -2.058423   -0.424558   -0.684347
  C     -1.470173    0.927569   -0.260570
  C     -0.047788    0.774642    0.213802
  O      0.335944    1.005046    1.342218
  O      0.749557    0.363568   -0.764020
  C      2.135579    0.131068   -0.467414
  C      2.356122   -1.282227    0.050220
  H     -2.584306   -2.336713    0.168669
  H     -1.196519   -1.564924    0.939369
  H     -2.821719   -0.970617    1.261414
  H     -3.047282   -0.253498   -1.110990
  H     -1.422770   -0.858763   -1.457274
  H     -2.054346    1.362967    0.549979
  H     -1.467307    1.604471   -1.115357
  H      2.650314    0.291023   -1.415265
  H      2.462837    0.867728    0.272735
  H      1.974120   -2.006941   -0.663756
  H      3.417881   -1.449861    0.198143
  H      1.843231   -1.415518    1.000411

 Total Charge           Charge          ....    0
 Multiplicity           Mult            ....    1
 Number of Electrons    NEL             ....   64
 Basis Dimension        Dim             ....  222

ORBITAL ENERGIES
----------------

  NO   OCC          E(Eh)            E(eV)
   0   2.0000     -19.001567      -517.0589
   1   2.0000     -18.943255      -515.4722
   2   2.0000     -10.161928      -276.5201
   3   2.0000     -10.083341      -274.3817
   4   2.0000     -10.035133      -273.0699
   5   2.0000     -10.028740      -272.8959
   6   2.0000     -10.018311      -272.6121
   7   2.0000     -10.011677      -272.4316
   8   2.0000      -1.078522       -29.3481
   9   2.0000      -0.988341       -26.8941
  10   2.0000      -0.770757       -20.9734
  11   2.0000      -0.731122       -19.8948
  12   2.0000      -0.671704       -18.2780
  13   2.0000      -0.618189       -16.8218
  14   2.0000      -0.564655       -15.3650
  15   2.0000      -0.519151       -14.1268
  16   2.0000      -0.469467       -12.7748
  17   2.0000      -0.461793       -12.5660
  18   2.0000      -0.443651       -12.0724
  19   2.0000      -0.415844       -11.3157
  20   2.0000      -0.405025       -11.0213
  21   2.0000      -0.391034       -10.6406
  22   2.0000      -0.368519       -10.0279
  23   2.0000      -0.362963        -9.8767
  24   2.0000      -0.349065        -9.4985
  25   2.0000      -0.336525        -9.1573
  26   2.0000      -0.317888        -8.6502
  27   2.0000      -0.308233        -8.3874
  28   2.0000      -0.304176        -8.2770
  29   2.0000      -0.300827        -8.1859
  30   2.0000      -0.276913        -7.5352
  31   2.0000      -0.247602        -6.7376
  32   0.0000      -0.023400        -0.6367
  33   0.0000       0.077759         2.1159
  34   0.0000       0.095877         2.6089
  35   0.0000       0.115053         3.1307
  36   0.0000       0.129056         3.5118

MULLIKEN ATOMIC CHARGES
-----------------------
   0 C :   -0.528895
   1 C :   -0.220947
   2 C :   -0.336523
   3 C :    0.400405
   4 O :   -0.509540
   5 O :   -0.192179
   6 C :   -0.138830
   7 C :   -0.495046
   8 H :    0.161877
   9 H :    0.161741
  10 H :    0.162989
  11 H :    0.163141
  12 H :    0.156435
  13 H :    0.178214
  14 H :    0.186245
  15 H :    0.173544
  16 H :    0.171547
  17 H :    0.166682
  18 H :    0.170604
  19 H :    0.168538
Sum of atomic charges:   -0.0000000

LOEWDIN ATOMIC CHARGES
----------------------
   0 C :   -0.423300
   1 C :   -0.289483
   2 C :   -0.228524
   3 C :    0.361349
   4 O :   -0.492971
   5 O :   -0.600574
   6 C :    0.032350
   7 C :   -0.394367
   8 H :    0.156510
   9 H :    0.155987
  10 H :    0.156216
  11 H :    0.160319
  12 H :    0.164496
  13 H :    0.181081
  14 H :    0.190423
  15 H :    0.188884
  16 H :    0.189548
  17 H :    0.162055
  18 H :    0.167798
  19 H :    0.162203

  Mayer bond orders larger than 0.100000
B(  0-C ,  1-C ) :   0.8978 B(  0-C ,  8-H ) :   0.9660 B(  0-C ,  9-H ) :   0.9690
B(  0-C , 10-H ) :   0.9765 B(  1-C ,  2-C ) :   0.8740 B(  1-C , 11-H ) :   0.9606
B(  1-C , 12-H ) :   0.9733 B(  2-C ,  3-C ) :   0.9609 B(  2-C , 13-H ) :   0.9987
B(  2-C , 14-H ) :   0.9371 B(  3-C ,  4-O ) :   1.7785 B(  3-C ,  5-O ) :   1.0609
B(  5-O ,  6-C ) :   0.8018 B(  6-C ,  7-C ) :   0.9313 B(  6-C , 15-H ) :   0.9532
B(  6-C , 16-H ) :   0.9648 B(  7-C , 17-H ) :   0.9698 B(  7-C , 18-H ) :   0.9598
B(  7-C , 19-H ) :   0.9691

Dispersion correction           -0.005326594
FINAL SINGLE POINT ENERGY      -386.241341590514

DIPOLE MOMENT
-------------

Method             : SCF
Type of density    : Electron Density
Multiplicity       :   1
Irrep              :   0
Energy             :  -386.2477326481883324 Eh
Relativity type    :
Basis              : AO
                                X                 Y                 Z
Electronic contribution:      2.111015872       5.811378969       0.159858213
Nuclear contribution   :     -2.090900104      -6.294173049      -1.278517420
                        -----------------------------------------
Total Dipole Moment    :      0.020115769      -0.482794081      -1.118659207
                        -----------------------------------------
Magnitude (a.u.)       :      1.218561935
Magnitude (Debye)      :      3.097338290

Rotational constants in cm-1:             0.101694             0.042896             0.038524
Rotational constants in MHz :          3048.699159          1285.998565          1154.912729

                             ****ORCA TERMINATED NORMALLY****
TOTAL RUN TIME: 0 days 0 hours 0 minutes 38 seconds 982 msec
