                         Program Version 6.0.0  -   RELEASE  -
|  1> ! r2scan-3c def2/J RI DEFGRID2 scfconv6 printgap
|  2> %output
|  3>     printlevel normal
|  4> end
|  5> * xyz 0 1
|  6> C 0.0485935869 1.5169852141 -0.2680800453
|  7> C -1.3231032224 0.9923841101 0.1255753065
|  8> Cl -1.5771017946 -0.7218100154 -0.3847571463
|  9> C 1.1963657014 0.9936302691 0.5807106863
| 10> Cl 1.6107316695 -0.7221580708 0.1962474206
| 11> H 0.2386819857 1.3039289277 -1.3203119435
| 12> H 0.0245642586 2.6008183698 -0.1378001045
| 13> H -1.4645329839 1.0096675267 1.2043688818
| 14> H -2.1085430869 1.5595466229 -0.3684853946
| 15> H 0.9526637847 1.0142349371 1.6410353942
| 16> H 2.1054531301 1.5592674221 0.3900533932
| 17> *
| 18>
| 19>                          ****END OF INPUT****

CARTESIAN COORDINATES (ANGSTROEM)
---------------------------------
  C      0.048594    1.516985   -0.268080
  C     -1.323103    0.992384    0.125575
  Cl    -1.577102   -0.721810   -0.384757
  C      1.196366    0.993630    0.580711
  Cl     1.610732   -0.722158    0.196247
  H      0.238682    1.303929   -1.320312
  H      0.024564    2.600818   -0.137800
  H     -1.464533    1.009668    1.204369
  H     -2.108543    1.559547   -0.368485
  H      0.952664    1.014235    1.641035
  H      2.105453    1.559267    0.390053

 Total Charge           Charge          ....    0
 Multiplicity           Mult            ....    1
 Number of Electrons    NEL             ....   58
 Basis Dimension        Dim             ....  141

ORBITAL ENERGIES
----------------

  NO   OCC          E(Eh)            E(eV)
   0   2.0000    -101.197590     -2753.7264
   1   2.0000    -101.197558     -2753.7256
   2   2.0000     -10.102528      -274.9038
   3   2.0000     -10.102517      -274.9035
   4   2.0000     -10.064124      -273.8587
   5   2.0000      -9.353590      -254.5241
   6   2.0000      -9.353560      -254.5233
   7   2.0000      -7.100052      -193.2022
   8   2.0000      -7.100016      -193.2013
   9   2.0000      -7.089650      -192.9192
  10   2.0000      -7.089624      -192.9185
  11   2.0000      -7.089348      -192.9110
  12   2.0000      -7.089321      -192.9102
  13   2.0000      -0.838662       -22.8212
  14   2.0000      -0.803598       -21.8670
  15   2.0000      -0.732543       -19.9335
  16   2.0000      -0.639910       -17.4128
  17   2.0000      -0.573497       -15.6056
  18   2.0000      -0.466567       -12.6959
  19   2.0000      -0.453375       -12.3370
  20   2.0000      -0.429762       -11.6944
  21   2.0000      -0.384547       -10.4641
  22   2.0000      -0.374678       -10.1955
  23   2.0000      -0.362081        -9.8527
  24   2.0000      -0.342969        -9.3327
  25   2.0000      -0.287556        -7.8248
  26   2.0000      -0.268251        -7.2995
  27   2.0000      -0.263467        -7.1693
  28   2.0000      -0.241405        -6.5690
  29   0.0000       0.001102         0.0300
  30   0.0000       0.002491         0.0678
  31   0.0000       0.074235         2.0200
  32   0.0000       0.103913         2.8276
  33   0.0000       0.110496         3.0067

MULLIKEN ATOMIC CHARGES
-----------------------
   0 C :   -0.249728
   1 C :   -0.168627
   2 Cl:   -0.182550
   3 C :   -0.168675
   4 Cl:   -0.182549
   5 H :    0.171021
   6 H :    0.146094
   7 H :    0.152150
   8 H :    0.165364
   9 H :    0.152126
  10 H :    0.165375
Sum of atomic charges:   -0.0000000

LOEWDIN ATOMIC CHARGES
----------------------
   0 C :   -0.343798
   1 C :   -0.320769
   2 Cl:    0.002229
   3 C :   -0.320775
   4 Cl:    0.002285
   5 H :    0.173550
   6 H :    0.169803
   7 H :    0.158695
   8 H :    0.160063
   9 H :    0.158653
  10 H :    0.160064

  Mayer bond orders larger than 0.100000
B(  0-C ,  1-C ) :   0.9329 B(  0-C ,  3-C ) :   0.9334 B(  0-C ,  5-H ) :   0.9553
B(  0-C ,  6-H ) :   0.9378 B(  1-C ,  2-Cl) :   0.9965 B(  1-C ,  7-H ) :   0.9639
B(  1-C ,  8-H ) :   0.9545 B(  3-C ,  4-Cl) :   0.9964 B(  3-C ,  9-H ) :   0.9639
B(  3-C , 10-H ) :   0.9545

Dispersion correction           -0.002982718
FINAL SINGLE POINT ENERGY     -1038.242424920676

DIPOLE MOMENT
-------------

Method             : SCF
Type of density    : Electron Density
Multiplicity       :   1
Irrep              :   0
Energy             : -1038.2492435786703027 Eh
Relativity type    :
Basis              : AO
                                X                 Y                 Z
Electronic contribution:      0.229257605      -8.939928553      -1.283413034
Nuclear contribution   :     -0.281288514      10.426186157       1.574773711
                        -----------------------------------------
Total Dipole Moment    :     -0.052030909       1.486257604       0.291360677
                        -----------------------------------------
Magnitude (a.u.)       :      1.515440505
Magnitude (Debye)      :      3.851943646

Rotational constants in cm-1:             0.147269             0.068105             0.049221
Rotational constants in MHz :          4415.024197          2041.745338          1475.612139

                             ****ORCA TERMINATED NORMALLY****
TOTAL RUN TIME: 0 days 0 hours 0 minutes 16 seconds 389 msec
