                         Program Version 6.0.0  -   RELEASE  -
|  1> ! r2scan-3c def2/J RI DEFGRID2 scfconv6 printgap
|  2> %output
|  3>     printlevel normal
|  4> end
|  5> %cpcm
|  6>     smd true
|  7>     smdsolvent "water"
|  8> end
|  9> * xyz 0 1
| 10> C 0.0485935869 1.5169852141 -0.2680800453
| 11> C -1.3231032224 0.9923841101 0.1255753065
| 12> Cl -1.5771017946 -0.7218100154 -0.3847571463
| 13> C 1.1963657014 0.9936302691 0.5807106863
| 14> Cl 1.6107316695 -0.7221580708 0.1962474206
| 15> H 0.2386819857 1.3039289277 -1.3203119435
| 16> H 0.0245642586 2.6008183698 -0.1378001045
| 17> H -1.4645329839 1.0096675267 1.2043688818
| 18> H -2.1085430869 1.5595466229 -0.3684853946
| 19> H 0.9526637847 1.0142349371 1.6410353942
| 20> H 2.1054531301 1.5592674221 0.3900533932
| 21> *
| 22>
| 23>                          ****END OF INPUT****

CARTESIAN COORDINATES (ANGSTROEM)
---------------------------------
  C      0.048594    1.516985   -0.268080
  C     -1.323103    0.992384    0.125575
  Cl    -1.577102   -0.721810   -0.384757
  C      1.196366    0.993630    0.580711
  Cl     1.610732   -0.722158    0.196247
  H      0.238682    1.303929   -1.320312
  H      0.024564    2.600818   -0.137800
  H     -1.464533    1.009668    1.204369
  H     -2.108543    1.559547   -0.368485
  H      0.952664    1.014235    1.641035
  H      2.105453    1.559267    0.390053

 Total Charge           Charge          ....    0
 Multiplicity           Mult            ....    1
 Number of Electrons    NEL             ....   58
 Basis Dimension        Dim             ....  141

ORBITAL ENERGIES
----------------

  NO   OCC          E(Eh)            E(eV)
   0   2.0000    -101.195640     -2753.6734
   1   2.0000    -101.195607     -2753.6725
   2   2.0000     -10.084276      -274.4071
   3   2.0000     -10.084258      -274.4066
   4   2.0000     -10.042153      -273.2609
   5   2.0000      -9.352053      -254.4823
   6   2.0000      -9.352022      -254.4814
   7   2.0000      -7.098000      -193.1464
   8   2.0000      -7.097962      -193.1454
   9   2.0000      -7.088346      -192.8837
  10   2.0000      -7.088319      -192.8830
  11   2.0000      -7.088030      -192.8751
  12   2.0000      -7.088001      -192.8743
  13   2.0000      -0.828092       -22.5335
  14   2.0000      -0.798295       -21.7227
  15   2.0000      -0.719598       -19.5812
  16   2.0000      -0.625049       -17.0085
  17   2.0000      -0.554664       -15.0932
  18   2.0000      -0.447331       -12.1725
  19   2.0000      -0.436576       -11.8798
  20   2.0000      -0.411286       -11.1917
  21   2.0000      -0.376735       -10.2515
  22   2.0000      -0.357562        -9.7298
  23   2.0000      -0.345728        -9.4077
  24   2.0000      -0.326768        -8.8918
  25   2.0000      -0.286729        -7.8023
  26   2.0000      -0.265625        -7.2280
  27   2.0000      -0.262654        -7.1472
  28   2.0000      -0.239430        -6.5152
  29   0.0000       0.010158         0.2764
  30   0.0000       0.012249         0.3333
  31   0.0000       0.097618         2.6563
  32   0.0000       0.120373         3.2755
  33   0.0000       0.129360         3.5201

MULLIKEN ATOMIC CHARGES
-----------------------
   0 C :   -0.252354
   1 C :   -0.182527
   2 Cl:   -0.244226
   3 C :   -0.182562
   4 Cl:   -0.244186
   5 H :    0.176480
   6 H :    0.181220
   7 H :    0.182884
   8 H :    0.191215
   9 H :    0.182826
  10 H :    0.191228
Sum of atomic charges:    0.0000000

LOEWDIN ATOMIC CHARGES
----------------------
   0 C :   -0.336418
   1 C :   -0.311761
   2 Cl:   -0.039650
   3 C :   -0.311770
   4 Cl:   -0.039588
   5 H :    0.173336
   6 H :    0.186291
   7 H :    0.169932
   8 H :    0.169872
   9 H :    0.169901
  10 H :    0.169854

  Mayer bond orders larger than 0.100000
B(  0-C ,  1-C ) :   0.9234 B(  0-C ,  3-C ) :   0.9237 B(  0-C ,  5-H ) :   0.9615
B(  0-C ,  6-H ) :   0.9289 B(  1-C ,  2-Cl) :   0.9467 B(  1-C ,  7-H ) :   0.9576
B(  1-C ,  8-H ) :   0.9481 B(  3-C ,  4-Cl) :   0.9467 B(  3-C ,  9-H ) :   0.9575
B(  3-C , 10-H ) :   0.9482

Dispersion correction           -0.002982718
FINAL SINGLE POINT ENERGY     -1038.250350631678

DIPOLE MOMENT
-------------

Method             : SCF
Type of density    : Electron Density
Multiplicity       :   1
Irrep              :   0
Energy             : -1038.2571692896722197 Eh
Relativity type    :
Basis              : AO
                                X                 Y                 Z
Electronic contribution:      0.201696815      -8.332893342      -1.130729447
Nuclear contribution   :     -0.281288514      10.426186157       1.574773711
                        -----------------------------------------
Total Dipole Moment    :     -0.079591699       2.093292815       0.444044264
                        -----------------------------------------
Magnitude (a.u.)       :      2.141351198
Magnitude (Debye)      :      5.442882194

Rotational constants in cm-1:             0.147269             0.068105             0.049221
Rotational constants in MHz :          4415.024197          2041.745338          1475.612139

                             ****ORCA TERMINATED NORMALLY****
TOTAL RUN TIME: 0 days 0 hours 0 minutes 21 seconds 720 msec
