                         Program Version 6.0.0  -   RELEASE  -
|  1> ! r2scan-3c def2/J RI DEFGRID2 scfconv6 printgap
|  2> %output
|  3>     printlevel normal
|  4> end
|  5> * xyz 0 1
|  6> C -3.5342841486 -0.307803527 -1.8181431588
|  7> C -3.1380453301 -0.5368545798 -0.3597298169
|  8> H -3.5698982326 -1.4686959505 0.0132763921
|  9> C -1.6317650287 -0.5925439013 -0.1952784718
| 10> C -1.0172126012 -1.7867574245 0.2221304482
| 11> C 0.3408594008 -1.8655103882 0.3562290867
| 12> C 1.1616645143 -0.7514417031 0.0864131892
| 13> C 2.5648062137 -0.8122529968 0.2191689325
| 14> C 3.3351906362 0.2915795428 -0.0477334934
| 15> C 2.7193898716 1.4984381651 -0.4568898741
| 16> C 1.3668261592 1.5769593693 -0.5907682296
| 17> C 0.5460405517 0.4578716635 -0.3256271527
| 18> C -0.8539682586 0.5074378702 -0.4569868144
| 19> O 4.6942378479 0.3487293497 0.0451230829
| 20> C 5.3925790797 -0.8145127334 0.4456607227
| 21> C -3.6247322428 0.5859754438 0.5289543715
| 22> O -3.724527616 1.7472402325 0.1979082369
| 23> O -3.8981593774 0.165908072 1.7545342685
| 24> H -3.0664525072 -1.0580489952 -2.4490041048
| 25> H -4.6137801175 -0.3704542915 -1.9297677402
| 26> H -3.2123246379 0.6784282262 -2.1413896369
| 27> H -1.6324859199 -2.6483796722 0.4337191342
| 28> H 0.8032395293 -2.788509093 0.6733594937
| 29> H 3.0035422743 -1.7457902008 0.5339529617
| 30> H 3.3598859917 2.3429875257 -0.6563635755
| 31> H 0.901586594 2.4998253745 -0.9033700683
| 32> H -1.3133806928 1.4376677967 -0.7604740447
| 33> H 5.0956072189 -1.124907332 1.4507943993
| 34> H 6.4432560067 -0.5337798438 0.4437042078
| 35> H 5.2284307395 -1.6339398791 -0.2589001096
| 36> H -4.1676344037 0.8895767088 2.3533904244
| 37> *
| 38>
| 39>                          ****END OF INPUT****

CARTESIAN COORDINATES (ANGSTROEM)
---------------------------------
  C     -3.534284   -0.307804   -1.818143
  C     -3.138045   -0.536855   -0.359730
  H     -3.569898   -1.468696    0.013276
  C     -1.631765   -0.592544   -0.195278
  C     -1.017213   -1.786757    0.222130
  C      0.340859   -1.865510    0.356229
  C      1.161665   -0.751442    0.086413
  C      2.564806   -0.812253    0.219169
  C      3.335191    0.291580   -0.047733
  C      2.719390    1.498438   -0.456890
  C      1.366826    1.576959   -0.590768
  C      0.546041    0.457872   -0.325627
  C     -0.853968    0.507438   -0.456987
  O      4.694238    0.348729    0.045123
  C      5.392579   -0.814513    0.445661
  C     -3.624732    0.585975    0.528954
  O     -3.724528    1.747240    0.197908
  O     -3.898159    0.165908    1.754534
  H     -3.066453   -1.058049   -2.449004
  H     -4.613780   -0.370454   -1.929768
  H     -3.212325    0.678428   -2.141390
  H     -1.632486   -2.648380    0.433719
  H      0.803240   -2.788509    0.673359
  H      3.003542   -1.745790    0.533953
  H      3.359886    2.342988   -0.656364
  H      0.901587    2.499825   -0.903370
  H     -1.313381    1.437668   -0.760474
  H      5.095607   -1.124907    1.450794
  H      6.443256   -0.533780    0.443704
  H      5.228431   -1.633940   -0.258900
  H     -4.167634    0.889577    2.353390

 Total Charge           Charge          ....    0
 Multiplicity           Mult            ....    1
 Number of Electrons    NEL             ....  122
 Basis Dimension        Dim             ....  408

ORBITAL ENERGIES
----------------

  NO   OCC          E(Eh)            E(eV)
   0   2.0000     -19.003005      -517.0980
   1   2.0000     -18.990681      -516.7627
   2   2.0000     -18.935668      -515.2657
   3   2.0000     -10.161151      -276.4990
   4   2.0000     -10.098782      -274.8018
   5   2.0000     -10.089604      -274.5521
   6   2.0000     -10.058407      -273.7032
   7   2.0000     -10.047679      -273.4113
   8   2.0000     -10.047298      -273.4009
   9   2.0000     -10.042985      -273.2835
  10   2.0000     -10.040055      -273.2038
  11   2.0000     -10.036983      -273.1202
  12   2.0000     -10.036635      -273.1107
  13   2.0000     -10.035910      -273.0910
  14   2.0000     -10.033458      -273.0243
  15   2.0000     -10.033351      -273.0214
  16   2.0000     -10.025603      -272.8105
  17   2.0000      -1.077968       -29.3330
  18   2.0000      -1.037731       -28.2381
  19   2.0000      -0.980406       -26.6782
  20   2.0000      -0.849428       -23.1141
  21   2.0000      -0.807843       -21.9825
  22   2.0000      -0.767364       -20.8810
  23   2.0000      -0.742766       -20.2117
  24   2.0000      -0.716681       -19.5019
  25   2.0000      -0.692098       -18.8330
  26   2.0000      -0.668740       -18.1973
  27   2.0000      -0.647469       -17.6185
  28   2.0000      -0.598955       -16.2984
  29   2.0000      -0.586879       -15.9698
  30   2.0000      -0.571473       -15.5506
  31   2.0000      -0.547966       -14.9109
  32   2.0000      -0.505412       -13.7530
  33   2.0000      -0.489347       -13.3158
  34   2.0000      -0.484061       -13.1720
  35   2.0000      -0.465327       -12.6622
  36   2.0000      -0.445105       -12.1119
  37   2.0000      -0.441901       -12.0247
  38   2.0000      -0.439587       -11.9618
  39   2.0000      -0.426202       -11.5975
  40   2.0000      -0.419229       -11.4078
  41   2.0000      -0.408063       -11.1040
  42   2.0000      -0.400993       -10.9116
  43   2.0000      -0.392791       -10.6884
  44   2.0000      -0.380147       -10.3443
  45   2.0000      -0.375617       -10.2211
  46   2.0000      -0.371442       -10.1075
  47   2.0000      -0.360982        -9.8228
  48   2.0000      -0.347752        -9.4628
  49   2.0000      -0.344816        -9.3829
  50   2.0000      -0.330766        -9.0006
  51   2.0000      -0.327316        -8.9067
  52   2.0000      -0.318151        -8.6573
  53   2.0000      -0.306936        -8.3522
  54   2.0000      -0.297153        -8.0860
  55   2.0000      -0.292398        -7.9565
  56   2.0000      -0.281617        -7.6632
  57   2.0000      -0.262804        -7.1513
  58   2.0000      -0.241028        -6.5587
  59   2.0000      -0.218559        -5.9473
  60   2.0000      -0.193510        -5.2657
  61   0.0000      -0.064817        -1.7638
  62   0.0000      -0.039069        -1.0631
  63   0.0000      -0.010569        -0.2876
  64   0.0000      -0.003846        -0.1047
  65   0.0000       0.056027         1.5246

MULLIKEN ATOMIC CHARGES
-----------------------
   0 C :   -0.492792
   1 C :   -0.065206
   2 H :    0.151344
   3 C :    0.133038
   4 C :   -0.217446
   5 C :   -0.315211
   6 C :    0.234920
   7 C :   -0.370206
   8 C :    0.365271
   9 C :   -0.317885
  10 C :   -0.264166
  11 C :    0.172209
  12 C :   -0.266101
  13 O :   -0.180266
  14 C :   -0.331441
  15 C :    0.332050
  16 O :   -0.409107
  17 O :   -0.334911
  18 H :    0.156298
  19 H :    0.148338
  20 H :    0.179111
  21 H :    0.145030
  22 H :    0.138663
  23 H :    0.143954
  24 H :    0.158491
  25 H :    0.146865
  26 H :    0.168304
  27 H :    0.153776
  28 H :    0.156048
  29 H :    0.153782
  30 H :    0.327249
Sum of atomic charges:    0.0000000

LOEWDIN ATOMIC CHARGES
----------------------
   0 C :   -0.372979
   1 C :   -0.148099
   2 H :    0.185076
   3 C :   -0.077074
   4 C :   -0.148657
   5 C :   -0.147236
   6 C :   -0.046229
   7 C :   -0.163060
   8 C :    0.190893
   9 C :   -0.119866
  10 C :   -0.130789
  11 C :   -0.062647
  12 C :   -0.118497
  13 O :   -0.681611
  14 C :   -0.054418
  15 C :    0.351647
  16 O :   -0.428002
  17 O :   -0.393752
  18 H :    0.160301
  19 H :    0.158280
  20 H :    0.171544
  21 H :    0.170411
  22 H :    0.169749
  23 H :    0.177830
  24 H :    0.182628
  25 H :    0.174029
  26 H :    0.188093
  27 H :    0.165811
  28 H :    0.180573
  29 H :    0.165854
  30 H :    0.300197

  Mayer bond orders larger than 0.100000
B(  0-C ,  1-C ) :   0.9389 B(  0-C , 18-H ) :   0.9742 B(  0-C , 19-H ) :   0.9718
B(  0-C , 20-H ) :   0.9651 B(  1-C ,  2-H ) :   0.9740 B(  1-C ,  3-C ) :   0.7896
B(  1-C , 15-C ) :   0.9456 B(  3-C ,  4-C ) :   1.2457 B(  3-C , 12-C ) :   1.5133
B(  4-C ,  5-C ) :   1.5038 B(  4-C , 21-H ) :   0.9335 B(  5-C ,  6-C ) :   1.2142
B(  5-C , 22-H ) :   0.9569 B(  6-C ,  7-C ) :   1.1780 B(  6-C , 11-C ) :   1.5244
B(  7-C ,  8-C ) :   1.4292 B(  7-C , 23-H ) :   0.9016 B(  8-C ,  9-C ) :   1.2666
B(  8-C , 13-O ) :   1.0638 B(  9-C , 10-C ) :   1.4492 B(  9-C , 24-H ) :   0.9447
B( 10-C , 11-C ) :   1.2069 B( 10-C , 25-H ) :   0.9500 B( 11-C , 12-C ) :   1.1991
B( 12-C , 26-H ) :   0.9368 B( 13-O , 14-C ) :   0.8572 B( 14-C , 27-H ) :   0.9627
B( 14-C , 28-H ) :   0.9681 B( 14-C , 29-H ) :   0.9628 B( 15-C , 16-O ) :   1.9146
B( 15-C , 17-O ) :   1.0646 B( 17-O , 30-H ) :   0.8606

Dispersion correction           -0.013074055
FINAL SINGLE POINT ENERGY      -767.448857062299

DIPOLE MOMENT
-------------

Method             : SCF
Type of density    : Electron Density
Multiplicity       :   1
Irrep              :   0
Energy             :  -767.4494082624330531 Eh
Relativity type    :
Basis              : AO
                                X                 Y                 Z
Electronic contribution:     -2.561524995       4.227910359       3.388730158
Nuclear contribution   :      3.014676788      -5.148969956      -2.969811180
                        -----------------------------------------
Total Dipole Moment    :      0.453151794      -0.921059597       0.418918977
                        -----------------------------------------
Magnitude (a.u.)       :      1.108688612
Magnitude (Debye)      :      2.818062497

Rotational constants in cm-1:             0.041652             0.007273             0.006849
Rotational constants in MHz :          1248.684575           218.025058           205.330140

                             ****ORCA TERMINATED NORMALLY****
TOTAL RUN TIME: 0 days 0 hours 1 minutes 32 seconds 18 msec
