                         Program Version 6.0.0  -   RELEASE  -
|  1> ! r2scan-3c def2/J RI DEFGRID2 scfconv6 printgap
|  2> %output
|  3>     printlevel normal
|  4> end
|  5> %cpcm
|  6>     smd true
|  7>     smdsolvent "water"
|  8> end
|  9> * xyz 0 1
| 10> C -3.5342841486 -0.307803527 -1.8181431588
| 11> C -3.1380453301 -0.5368545798 -0.3597298169
| 12> H -3.5698982326 -1.4686959505 0.0132763921
| 13> C -1.6317650287 -0.5925439013 -0.1952784718
| 14> C -1.0172126012 -1.7867574245 0.2221304482
| 15> C 0.3408594008 -1.8655103882 0.3562290867
| 16> C 1.1616645143 -0.7514417031 0.0864131892
| 17> C 2.5648062137 -0.8122529968 0.2191689325
| 18> C 3.3351906362 0.2915795428 -0.0477334934
| 19> C 2.7193898716 1.4984381651 -0.4568898741
| 20> C 1.3668261592 1.5769593693 -0.5907682296
| 21> C 0.5460405517 0.4578716635 -0.3256271527
| 22> C -0.8539682586 0.5074378702 -0.4569868144
| 23> O 4.6942378479 0.3487293497 0.0451230829
| 24> C 5.3925790797 -0.8145127334 0.4456607227
| 25> C -3.6247322428 0.5859754438 0.5289543715
| 26> O -3.724527616 1.7472402325 0.1979082369
| 27> O -3.8981593774 0.165908072 1.7545342685
| 28> H -3.0664525072 -1.0580489952 -2.4490041048
| 29> H -4.6137801175 -0.3704542915 -1.9297677402
| 30> H -3.2123246379 0.6784282262 -2.1413896369
| 31> H -1.6324859199 -2.6483796722 0.4337191342
| 32> H 0.8032395293 -2.788509093 0.6733594937
| 33> H 3.0035422743 -1.7457902008 0.5339529617
| 34> H 3.3598859917 2.3429875257 -0.6563635755
| 35> H 0.901586594 2.4998253745 -0.9033700683
| 36> H -1.3133806928 1.4376677967 -0.7604740447
| 37> H 5.0956072189 -1.124907332 1.4507943993
| 38> H 6.4432560067 -0.5337798438 0.4437042078
| 39> H 5.2284307395 -1.6339398791 -0.2589001096
| 40> H -4.1676344037 0.8895767088 2.3533904244
| 41> *
| 42>
| 43>                          ****END OF INPUT****

CARTESIAN COORDINATES (ANGSTROEM)
---------------------------------
  C     -3.534284   -0.307804   -1.818143
  C     -3.138045   -0.536855   -0.359730
  H     -3.569898   -1.468696    0.013276
  C     -1.631765   -0.592544   -0.195278
  C     -1.017213   -1.786757    0.222130
  C      0.340859   -1.865510    0.356229
  C      1.161665   -0.751442    0.086413
  C      2.564806   -0.812253    0.219169
  C      3.335191    0.291580   -0.047733
  C      2.719390    1.498438   -0.456890
  C      1.366826    1.576959   -0.590768
  C      0.546041    0.457872   -0.325627
  C     -0.853968    0.507438   -0.456987
  O      4.694238    0.348729    0.045123
  C      5.392579   -0.814513    0.445661
  C     -3.624732    0.585975    0.528954
  O     -3.724528    1.747240    0.197908
  O     -3.898159    0.165908    1.754534
  H     -3.066453   -1.058049   -2.449004
  H     -4.613780   -0.370454   -1.929768
  H     -3.212325    0.678428   -2.141390
  H     -1.632486   -2.648380    0.433719
  H      0.803240   -2.788509    0.673359
  H      3.003542   -1.745790    0.533953
  H      3.359886    2.342988   -0.656364
  H      0.901587    2.499825   -0.903370
  H     -1.313381    1.437668   -0.760474
  H      5.095607   -1.124907    1.450794
  H      6.443256   -0.533780    0.443704
  H      5.228431   -1.633940   -0.258900
  H     -4.167634    0.889577    2.353390

 Total Charge           Charge          ....    0
 Multiplicity           Mult            ....    1
 Number of Electrons    NEL             ....  122
 Basis Dimension        Dim             ....  408

ORBITAL ENERGIES
----------------

  NO   OCC          E(Eh)            E(eV)
   0   2.0000     -19.002958      -517.0968
   1   2.0000     -18.990547      -516.7590
   2   2.0000     -18.946838      -515.5697
   3   2.0000     -10.169247      -276.7193
   4   2.0000     -10.099177      -274.8126
   5   2.0000     -10.073311      -274.1087
   6   2.0000     -10.054621      -273.6002
   7   2.0000     -10.048844      -273.4430
   8   2.0000     -10.048429      -273.4317
   9   2.0000     -10.044891      -273.3354
  10   2.0000     -10.039642      -273.1925
  11   2.0000     -10.036997      -273.1206
  12   2.0000     -10.035201      -273.0717
  13   2.0000     -10.034678      -273.0575
  14   2.0000     -10.034420      -273.0504
  15   2.0000     -10.031830      -272.9800
  16   2.0000     -10.020617      -272.6748
  17   2.0000      -1.080645       -29.4059
  18   2.0000      -1.037009       -28.2184
  19   2.0000      -0.989179       -26.9169
  20   2.0000      -0.851297       -23.1650
  21   2.0000      -0.808147       -21.9908
  22   2.0000      -0.766586       -20.8599
  23   2.0000      -0.742863       -20.2143
  24   2.0000      -0.714750       -19.4493
  25   2.0000      -0.690638       -18.7932
  26   2.0000      -0.663246       -18.0478
  27   2.0000      -0.643850       -17.5200
  28   2.0000      -0.597342       -16.2545
  29   2.0000      -0.584844       -15.9144
  30   2.0000      -0.569456       -15.4957
  31   2.0000      -0.544530       -14.8174
  32   2.0000      -0.501399       -13.6438
  33   2.0000      -0.488596       -13.2954
  34   2.0000      -0.482302       -13.1241
  35   2.0000      -0.468361       -12.7447
  36   2.0000      -0.453898       -12.3512
  37   2.0000      -0.437673       -11.9097
  38   2.0000      -0.434027       -11.8105
  39   2.0000      -0.426904       -11.6166
  40   2.0000      -0.415264       -11.2999
  41   2.0000      -0.405207       -11.0263
  42   2.0000      -0.399755       -10.8779
  43   2.0000      -0.389511       -10.5991
  44   2.0000      -0.379685       -10.3317
  45   2.0000      -0.375129       -10.2078
  46   2.0000      -0.372727       -10.1424
  47   2.0000      -0.358608        -9.7582
  48   2.0000      -0.344681        -9.3792
  49   2.0000      -0.341707        -9.2983
  50   2.0000      -0.328891        -8.9496
  51   2.0000      -0.325493        -8.8571
  52   2.0000      -0.314597        -8.5606
  53   2.0000      -0.306265        -8.3339
  54   2.0000      -0.301679        -8.2091
  55   2.0000      -0.294420        -8.0116
  56   2.0000      -0.283266        -7.7081
  57   2.0000      -0.266110        -7.2412
  58   2.0000      -0.252104        -6.8601
  59   2.0000      -0.221726        -6.0335
  60   2.0000      -0.195787        -5.3276
  61   0.0000      -0.067218        -1.8291
  62   0.0000      -0.042995        -1.1700
  63   0.0000      -0.015872        -0.4319
  64   0.0000      -0.006277        -0.1708
  65   0.0000       0.066606         1.8124

MULLIKEN ATOMIC CHARGES
-----------------------
   0 C :   -0.549631
   1 C :   -0.016665
   2 H :    0.181673
   3 C :    0.100423
   4 C :   -0.237202
   5 C :   -0.332750
   6 C :    0.176104
   7 C :   -0.345120
   8 C :    0.349181
   9 C :   -0.348915
  10 C :   -0.297945
  11 C :    0.118413
  12 C :   -0.258582
  13 O :   -0.220267
  14 C :   -0.339492
  15 C :    0.349382
  16 O :   -0.482623
  17 O :   -0.362103
  18 H :    0.173790
  19 H :    0.170598
  20 H :    0.180521
  21 H :    0.179902
  22 H :    0.174294
  23 H :    0.184731
  24 H :    0.185712
  25 H :    0.180593
  26 H :    0.188681
  27 H :    0.172152
  28 H :    0.174748
  29 H :    0.172304
  30 H :    0.378093
Sum of atomic charges:   -0.0000000

LOEWDIN ATOMIC CHARGES
----------------------
   0 C :   -0.378605
   1 C :   -0.143624
   2 H :    0.197563
   3 C :   -0.082022
   4 C :   -0.152696
   5 C :   -0.151933
   6 C :   -0.060795
   7 C :   -0.161291
   8 C :    0.180023
   9 C :   -0.130397
  10 C :   -0.138347
  11 C :   -0.076628
  12 C :   -0.128658
  13 O :   -0.705997
  14 C :   -0.050070
  15 C :    0.361023
  16 O :   -0.482312
  17 O :   -0.386451
  18 H :    0.166275
  19 H :    0.164905
  20 H :    0.169240
  21 H :    0.183685
  22 H :    0.183373
  23 H :    0.193743
  24 H :    0.191357
  25 H :    0.185721
  26 H :    0.193233
  27 H :    0.175287
  28 H :    0.187645
  29 H :    0.175389
  30 H :    0.321363

  Mayer bond orders larger than 0.100000
B(  0-C ,  1-C ) :   0.9095 B(  0-C , 18-H ) :   0.9698 B(  0-C , 19-H ) :   0.9697
B(  0-C , 20-H ) :   0.9667 B(  1-C ,  2-H ) :   0.9636 B(  1-C ,  3-C ) :   0.7922
B(  1-C , 15-C ) :   0.9457 B(  3-C ,  4-C ) :   1.2361 B(  3-C , 12-C ) :   1.4675
B(  4-C ,  5-C ) :   1.4650 B(  4-C , 21-H ) :   0.9539 B(  5-C ,  6-C ) :   1.2113
B(  5-C , 22-H ) :   0.9748 B(  6-C ,  7-C ) :   1.2003 B(  6-C , 11-C ) :   1.4328
B(  7-C ,  8-C ) :   1.4196 B(  7-C , 23-H ) :   0.9073 B(  8-C ,  9-C ) :   1.2162
B(  8-C , 13-O ) :   1.0503 B(  9-C , 10-C ) :   1.4457 B(  9-C , 24-H ) :   0.9555
B( 10-C , 11-C ) :   1.2048 B( 10-C , 25-H ) :   0.9597 B( 11-C , 12-C ) :   1.2218
B( 12-C , 26-H ) :   0.9343 B( 13-O , 14-C ) :   0.8493 B( 14-C , 27-H ) :   0.9548
B( 14-C , 28-H ) :   0.9603 B( 14-C , 29-H ) :   0.9550 B( 15-C , 16-O ) :   1.8561
B( 15-C , 17-O ) :   1.0947 B( 17-O , 30-H ) :   0.8359

Dispersion correction           -0.013074055
FINAL SINGLE POINT ENERGY      -767.463282801048

DIPOLE MOMENT
-------------

Method             : SCF
Type of density    : Electron Density
Multiplicity       :   1
Irrep              :   0
Energy             :  -767.4638340011824766 Eh
Relativity type    :
Basis              : AO
                                X                 Y                 Z
Electronic contribution:     -2.580526086       3.681462394       3.596724120
Nuclear contribution   :      3.014676788      -5.148969956      -2.969811180
                        -----------------------------------------
Total Dipole Moment    :      0.434150703      -1.467507561       0.626912940
                        -----------------------------------------
Magnitude (a.u.)       :      1.653809273
Magnitude (Debye)      :      4.203649101

Rotational constants in cm-1:             0.041652             0.007273             0.006849
Rotational constants in MHz :          1248.684575           218.025058           205.330140

                             ****ORCA TERMINATED NORMALLY****
TOTAL RUN TIME: 0 days 0 hours 1 minutes 45 seconds 508 msec
