                         Program Version 6.0.0  -   RELEASE  -
|  1> ! pbe def2-sv(p) def2/J RI DEFGRID1 loosescf d4 GCP(DFT/SV(P)) printgap
|  2> %output
|  3>     printlevel normal
|  4> end
|  5> * xyz 0 1
|  6> C 2.3208333414 0.301899321 -0.0031755898
|  7> C 1.1626520269 -0.1960339664 0.3867825641
|  8> C -7.47795e-05 -0.4596858722 -0.5236813793
|  9> C -1.1616417892 0.4092472578 -0.1413026208
| 10> C -2.3217064395 -0.0419295862 0.2969554462
| 11> H 3.1262612939 0.4824538005 0.6881024332
| 12> H 2.5147346683 0.5441511006 -1.0354528332
| 13> H 0.9879021438 -0.4278674104 1.4293953555
| 14> H -0.2911279295 -1.509917415 -0.447939387
| 15> H 0.2900031907 -0.2462534037 -1.5551060773
| 16> H -0.9842087943 1.4732770515 -0.2293788181
| 17> H -3.1261164744 0.620379075 0.5678957002
| 18> H -2.5181911884 -1.0970564106 0.3968494079
| 19> *
| 20>
| 21>                          ****END OF INPUT****

CARTESIAN COORDINATES (ANGSTROEM)
---------------------------------
  C      2.320833    0.301899   -0.003176
  C      1.162652   -0.196034    0.386783
  C     -0.000075   -0.459686   -0.523681
  C     -1.161642    0.409247   -0.141303
  C     -2.321706   -0.041930    0.296955
  H      3.126261    0.482454    0.688102
  H      2.514735    0.544151   -1.035453
  H      0.987902   -0.427867    1.429395
  H     -0.291128   -1.509917   -0.447939
  H      0.290003   -0.246253   -1.555106
  H     -0.984209    1.473277   -0.229379
  H     -3.126116    0.620379    0.567896
  H     -2.518191   -1.097056    0.396849

 Total Charge           Charge          ....    0
 Multiplicity           Mult            ....    1
 Number of Electrons    NEL             ....   38
 Basis Dimension        Dim             ....   86

ORBITAL ENERGIES
----------------

  NO   OCC          E(Eh)            E(eV)
   0   2.0000      -9.895797      -269.2783
   1   2.0000      -9.895784      -269.2780
   2   2.0000      -9.895401      -269.2676
   3   2.0000      -9.878216      -268.7999
   4   2.0000      -9.878196      -268.7994
   5   2.0000      -0.734395       -19.9839
   6   2.0000      -0.679118       -18.4797
   7   2.0000      -0.607969       -16.5437
   8   2.0000      -0.508270       -13.8307
   9   2.0000      -0.490658       -13.3515
  10   2.0000      -0.437599       -11.9077
  11   2.0000      -0.391072       -10.6416
  12   2.0000      -0.386160       -10.5079
  13   2.0000      -0.385746       -10.4967
  14   2.0000      -0.319695        -8.6993
  15   2.0000      -0.313057        -8.5187
  16   2.0000      -0.305143        -8.3034
  17   2.0000      -0.238449        -6.4885
  18   2.0000      -0.226216        -6.1556
  19   0.0000      -0.033052        -0.8994
  20   0.0000       0.003875         0.1055
  21   0.0000       0.057990         1.5780
  22   0.0000       0.067761         1.8439
  23   0.0000       0.079521         2.1639

MULLIKEN ATOMIC CHARGES
-----------------------
   0 C :   -0.200725
   1 C :   -0.125687
   2 C :   -0.075568
   3 C :   -0.125321
   4 C :   -0.200799
   5 H :    0.099787
   6 H :    0.093092
   7 H :    0.077893
   8 H :    0.093216
   9 H :    0.093433
  10 H :    0.077793
  11 H :    0.099793
  12 H :    0.093092
Sum of atomic charges:   -0.0000000

LOEWDIN ATOMIC CHARGES
----------------------
   0 C :   -0.256023
   1 C :   -0.128808
   2 C :   -0.214955
   3 C :   -0.128734
   4 C :   -0.256072
   5 H :    0.122139
   6 H :    0.118801
   7 H :    0.122324
   8 H :    0.129020
   9 H :    0.129061
  10 H :    0.122301
  11 H :    0.122148
  12 H :    0.118798

  Mayer bond orders larger than 0.100000
B(  0-C ,  1-C ) :   2.0632 B(  0-C ,  5-H ) :   0.9244 B(  0-C ,  6-H ) :   0.9204
B(  1-C ,  2-C ) :   1.0616 B(  1-C ,  7-H ) :   0.9333 B(  2-C ,  3-C ) :   1.0616
B(  2-C ,  8-H ) :   0.9017 B(  2-C ,  9-H ) :   0.9017 B(  3-C ,  4-C ) :   2.0630
B(  3-C , 10-H ) :   0.9333 B(  4-C , 11-H ) :   0.9244 B(  4-C , 12-H ) :   0.9205

Dispersion correction           -0.008584076
FINAL SINGLE POINT ENERGY      -194.815470307628

DIPOLE MOMENT
-------------

Method             : SCF
Type of density    : Electron Density
Multiplicity       :   1
Irrep              :   0
Energy             :  -194.8546018142978369 Eh
Relativity type    :
Basis              : AO
                                X                 Y                 Z
Electronic contribution:      0.000818972       0.123860414       0.143387086
Nuclear contribution   :     -0.000697146      -0.150889645      -0.174156888
                        -----------------------------------------
Total Dipole Moment    :      0.000121825      -0.027029230      -0.030769801
                        -----------------------------------------
Magnitude (a.u.)       :      0.040955767
Magnitude (Debye)      :      0.104101286

Rotational constants in cm-1:             0.646629             0.080796             0.080046
Rotational constants in MHz :         19385.442674          2422.189378          2399.711506

                             ****ORCA TERMINATED NORMALLY****
TOTAL RUN TIME: 0 days 0 hours 0 minutes 5 seconds 502 msec
