                         Program Version 6.0.0  -   RELEASE  -
|  1> ! r2scan-3c def2/J RI DEFGRID2 scfconv6 printgap
|  2> %output
|  3>     printlevel normal
|  4> end
|  5> * xyz 0 1
|  6> C -2.2355608765 -1.5733967564 0.5067722467
|  7> C -2.3433646904 -0.2343083308 -0.2128500867
|  8> C -1.42480633 0.8433959243 0.3784357394
|  9> C -0.0007361126 0.7874955254 -0.1139978032
| 10> O 0.6282035366 1.7709242992 -0.4539051709
| 11> O 0.4992626028 -0.4388826454 -0.137946079
| 12> C 1.8574240654 -0.6153186576 -0.5721002769
| 13> C 2.8267289212 -0.4653436252 0.5903556878
| 14> H -2.9064073919 -2.2964107881 0.050145727
| 15> H -1.2218686393 -1.9575983696 0.4516585434
| 16> H -2.5095123198 -1.4636740021 1.5533208215
| 17> H -3.371119957 0.1243956617 -0.1396163816
| 18> H -2.112511162 -0.3649005443 -1.271605466
| 19> H -1.3989892848 0.7412883383 1.4656980889
| 20> H -1.7951016331 1.8411681362 0.1398384344
| 21> H 1.8872359361 -1.6239527207 -0.9855381328
| 22> H 2.0740756786 0.1215207615 -1.3514682252
| 23> H 3.8353246549 -0.6699167944 0.2464252693
| 24> H 2.7857424383 0.5493528049 0.9801403699
| 25> H 2.5697444285 -1.160935105 1.3846005469
| 26> *
| 27>
| 28>                          ****END OF INPUT****

CARTESIAN COORDINATES (ANGSTROEM)
---------------------------------
  C     -2.235561   -1.573397    0.506772
  C     -2.343365   -0.234308   -0.212850
  C     -1.424806    0.843396    0.378436
  C     -0.000736    0.787496   -0.113998
  O      0.628204    1.770924   -0.453905
  O      0.499263   -0.438883   -0.137946
  C      1.857424   -0.615319   -0.572100
  C      2.826729   -0.465344    0.590356
  H     -2.906407   -2.296411    0.050146
  H     -1.221869   -1.957598    0.451659
  H     -2.509512   -1.463674    1.553321
  H     -3.371120    0.124396   -0.139616
  H     -2.112511   -0.364901   -1.271605
  H     -1.398989    0.741288    1.465698
  H     -1.795102    1.841168    0.139838
  H      1.887236   -1.623953   -0.985538
  H      2.074076    0.121521   -1.351468
  H      3.835325   -0.669917    0.246425
  H      2.785742    0.549353    0.980140
  H      2.569744   -1.160935    1.384601

 Total Charge           Charge          ....    0
 Multiplicity           Mult            ....    1
 Number of Electrons    NEL             ....   64
 Basis Dimension        Dim             ....  222

ORBITAL ENERGIES
----------------

  NO   OCC          E(Eh)            E(eV)
   0   2.0000     -18.997823      -516.9571
   1   2.0000     -18.926019      -515.0032
   2   2.0000     -10.151977      -276.2493
   3   2.0000     -10.092109      -274.6203
   4   2.0000     -10.041703      -273.2486
   5   2.0000     -10.036351      -273.1030
   6   2.0000     -10.029326      -272.9118
   7   2.0000     -10.015952      -272.5479
   8   2.0000      -1.073011       -29.1981
   9   2.0000      -0.973767       -26.4975
  10   2.0000      -0.774165       -21.0661
  11   2.0000      -0.737614       -20.0715
  12   2.0000      -0.677973       -18.4486
  13   2.0000      -0.625052       -17.0085
  14   2.0000      -0.569629       -15.5004
  15   2.0000      -0.524954       -14.2847
  16   2.0000      -0.476895       -12.9770
  17   2.0000      -0.447539       -12.1782
  18   2.0000      -0.439475       -11.9587
  19   2.0000      -0.421665       -11.4741
  20   2.0000      -0.404970       -11.0198
  21   2.0000      -0.390123       -10.6158
  22   2.0000      -0.381378       -10.3778
  23   2.0000      -0.372297       -10.1307
  24   2.0000      -0.349976        -9.5233
  25   2.0000      -0.339153        -9.2288
  26   2.0000      -0.325121        -8.8470
  27   2.0000      -0.313418        -8.5285
  28   2.0000      -0.309988        -8.4352
  29   2.0000      -0.296195        -8.0599
  30   2.0000      -0.271798        -7.3960
  31   2.0000      -0.231973        -6.3123
  32   0.0000      -0.013850        -0.3769
  33   0.0000       0.072629         1.9763
  34   0.0000       0.088995         2.4217
  35   0.0000       0.108791         2.9604
  36   0.0000       0.116137         3.1602

MULLIKEN ATOMIC CHARGES
-----------------------
   0 C :   -0.516381
   1 C :   -0.204709
   2 C :   -0.293063
   3 C :    0.323834
   4 O :   -0.426356
   5 O :   -0.146227
   6 C :   -0.145651
   7 C :   -0.461710
   8 H :    0.144260
   9 H :    0.173164
  10 H :    0.140160
  11 H :    0.146004
  12 H :    0.141455
  13 H :    0.164092
  14 H :    0.173118
  15 H :    0.147600
  16 H :    0.170375
  17 H :    0.147078
  18 H :    0.171909
  19 H :    0.151049
Sum of atomic charges:   -0.0000000

LOEWDIN ATOMIC CHARGES
----------------------
   0 C :   -0.421645
   1 C :   -0.294596
   2 C :   -0.229715
   3 C :    0.360925
   4 O :   -0.437332
   5 O :   -0.604807
   6 C :    0.028359
   7 C :   -0.389704
   8 H :    0.150008
   9 H :    0.166517
  10 H :    0.148713
  11 H :    0.154105
  12 H :    0.159349
  13 H :    0.181172
  14 H :    0.180473
  15 H :    0.176933
  16 H :    0.189796
  17 H :    0.159335
  18 H :    0.165323
  19 H :    0.156791

  Mayer bond orders larger than 0.100000
B(  0-C ,  1-C ) :   0.9053 B(  0-C ,  8-H ) :   0.9706 B(  0-C ,  9-H ) :   0.9822
B(  0-C , 10-H ) :   0.9792 B(  1-C ,  2-C ) :   0.8607 B(  1-C , 11-H ) :   0.9632
B(  1-C , 12-H ) :   0.9788 B(  2-C ,  3-C ) :   1.0180 B(  2-C , 13-H ) :   0.9406
B(  2-C , 14-H ) :   0.9694 B(  3-C ,  4-O ) :   1.8473 B(  3-C ,  5-O ) :   1.0747
B(  5-O ,  6-C ) :   0.8093 B(  6-C ,  7-C ) :   0.9359 B(  6-C , 15-H ) :   0.9623
B(  6-C , 16-H ) :   0.9673 B(  7-C , 17-H ) :   0.9655 B(  7-C , 18-H ) :   0.9715
B(  7-C , 19-H ) :   0.9739

Dispersion correction           -0.005191380
FINAL SINGLE POINT ENERGY      -386.232871042411

DIPOLE MOMENT
-------------

Method             : SCF
Type of density    : Electron Density
Multiplicity       :   1
Irrep              :   0
Energy             :  -386.2395676173079551 Eh
Relativity type    :
Basis              : AO
                                X                 Y                 Z
Electronic contribution:      1.928116791       4.959711113      -2.182343849
Nuclear contribution   :     -2.012899620      -5.759038612       2.358781033
                        -----------------------------------------
Total Dipole Moment    :     -0.084782829      -0.799327499       0.176437184
                        -----------------------------------------
Magnitude (a.u.)       :      0.822947543
Magnitude (Debye)      :      2.091766419

Rotational constants in cm-1:             0.109427             0.042024             0.033478
Rotational constants in MHz :          3280.551344          1259.833153          1003.638031

                             ****ORCA TERMINATED NORMALLY****
TOTAL RUN TIME: 0 days 0 hours 0 minutes 30 seconds 810 msec
