                         Program Version 6.0.0  -   RELEASE  -
|  1> ! r2scan-3c def2/J RI DEFGRID2 scfconv6 printgap
|  2> %output
|  3>     printlevel normal
|  4> end
|  5> %cpcm
|  6>     smd true
|  7>     smdsolvent "water"
|  8> end
|  9> * xyz 0 1
| 10> C -2.2355608765 -1.5733967564 0.5067722467
| 11> C -2.3433646904 -0.2343083308 -0.2128500867
| 12> C -1.42480633 0.8433959243 0.3784357394
| 13> C -0.0007361126 0.7874955254 -0.1139978032
| 14> O 0.6282035366 1.7709242992 -0.4539051709
| 15> O 0.4992626028 -0.4388826454 -0.137946079
| 16> C 1.8574240654 -0.6153186576 -0.5721002769
| 17> C 2.8267289212 -0.4653436252 0.5903556878
| 18> H -2.9064073919 -2.2964107881 0.050145727
| 19> H -1.2218686393 -1.9575983696 0.4516585434
| 20> H -2.5095123198 -1.4636740021 1.5533208215
| 21> H -3.371119957 0.1243956617 -0.1396163816
| 22> H -2.112511162 -0.3649005443 -1.271605466
| 23> H -1.3989892848 0.7412883383 1.4656980889
| 24> H -1.7951016331 1.8411681362 0.1398384344
| 25> H 1.8872359361 -1.6239527207 -0.9855381328
| 26> H 2.0740756786 0.1215207615 -1.3514682252
| 27> H 3.8353246549 -0.6699167944 0.2464252693
| 28> H 2.7857424383 0.5493528049 0.9801403699
| 29> H 2.5697444285 -1.160935105 1.3846005469
| 30> *
| 31>
| 32>                          ****END OF INPUT****

CARTESIAN COORDINATES (ANGSTROEM)
---------------------------------
  C     -2.235561   -1.573397    0.506772
  C     -2.343365   -0.234308   -0.212850
  C     -1.424806    0.843396    0.378436
  C     -0.000736    0.787496   -0.113998
  O      0.628204    1.770924   -0.453905
  O      0.499263   -0.438883   -0.137946
  C      1.857424   -0.615319   -0.572100
  C      2.826729   -0.465344    0.590356
  H     -2.906407   -2.296411    0.050146
  H     -1.221869   -1.957598    0.451659
  H     -2.509512   -1.463674    1.553321
  H     -3.371120    0.124396   -0.139616
  H     -2.112511   -0.364901   -1.271605
  H     -1.398989    0.741288    1.465698
  H     -1.795102    1.841168    0.139838
  H      1.887236   -1.623953   -0.985538
  H      2.074076    0.121521   -1.351468
  H      3.835325   -0.669917    0.246425
  H      2.785742    0.549353    0.980140
  H      2.569744   -1.160935    1.384601

 Total Charge           Charge          ....    0
 Multiplicity           Mult            ....    1
 Number of Electrons    NEL             ....   64
 Basis Dimension        Dim             ....  222

ORBITAL ENERGIES
----------------

  NO   OCC          E(Eh)            E(eV)
   0   2.0000     -19.001562      -517.0588
   1   2.0000     -18.941370      -515.4209
   2   2.0000     -10.161892      -276.5191
   3   2.0000     -10.083220      -274.3784
   4   2.0000     -10.035523      -273.0805
   5   2.0000     -10.027174      -272.8533
   6   2.0000     -10.018210      -272.6094
   7   2.0000     -10.007654      -272.3221
   8   2.0000      -1.078810       -29.3559
   9   2.0000      -0.986874       -26.8542
  10   2.0000      -0.768319       -20.9070
  11   2.0000      -0.729581       -19.8529
  12   2.0000      -0.672185       -18.2911
  13   2.0000      -0.618853       -16.8398
  14   2.0000      -0.562443       -15.3048
  15   2.0000      -0.521455       -14.1895
  16   2.0000      -0.473790       -12.8925
  17   2.0000      -0.457234       -12.4420
  18   2.0000      -0.438966       -11.9449
  19   2.0000      -0.416090       -11.3224
  20   2.0000      -0.403332       -10.9752
  21   2.0000      -0.383969       -10.4483
  22   2.0000      -0.375656       -10.2221
  23   2.0000      -0.366490        -9.9727
  24   2.0000      -0.344499        -9.3743
  25   2.0000      -0.337444        -9.1823
  26   2.0000      -0.318020        -8.6538
  27   2.0000      -0.306398        -8.3375
  28   2.0000      -0.301777        -8.2118
  29   2.0000      -0.292510        -7.9596
  30   2.0000      -0.278070        -7.5667
  31   2.0000      -0.247065        -6.7230
  32   0.0000      -0.021248        -0.5782
  33   0.0000       0.077952         2.1212
  34   0.0000       0.095525         2.5994
  35   0.0000       0.118448         3.2231
  36   0.0000       0.124558         3.3894

MULLIKEN ATOMIC CHARGES
-----------------------
   0 C :   -0.550311
   1 C :   -0.220505
   2 C :   -0.308114
   3 C :    0.367138
   4 O :   -0.515111
   5 O :   -0.160140
   6 C :   -0.150755
   7 C :   -0.487372
   8 H :    0.156690
   9 H :    0.169643
  10 H :    0.156844
  11 H :    0.161866
  12 H :    0.155269
  13 H :    0.195986
  14 H :    0.179713
  15 H :    0.173916
  16 H :    0.172389
  17 H :    0.170104
  18 H :    0.167351
  19 H :    0.165400
Sum of atomic charges:   -0.0000000

LOEWDIN ATOMIC CHARGES
----------------------
   0 C :   -0.428020
   1 C :   -0.292889
   2 C :   -0.227832
   3 C :    0.370888
   4 O :   -0.500959
   5 O :   -0.602226
   6 C :    0.033011
   7 C :   -0.392866
   8 H :    0.153342
   9 H :    0.163458
  10 H :    0.153647
  11 H :    0.160436
  12 H :    0.162537
  13 H :    0.193561
  14 H :    0.183486
  15 H :    0.188451
  16 H :    0.190218
  17 H :    0.167734
  18 H :    0.162178
  19 H :    0.161846

  Mayer bond orders larger than 0.100000
B(  0-C ,  1-C ) :   0.8997 B(  0-C ,  8-H ) :   0.9684 B(  0-C ,  9-H ) :   0.9818
B(  0-C , 10-H ) :   0.9760 B(  1-C ,  2-C ) :   0.8483 B(  1-C , 11-H ) :   0.9597
B(  1-C , 12-H ) :   0.9805 B(  2-C ,  3-C ) :   1.0156 B(  2-C , 13-H ) :   0.9286
B(  2-C , 14-H ) :   0.9669 B(  3-C ,  4-O ) :   1.7752 B(  3-C ,  5-O ) :   1.1043
B(  5-O ,  6-C ) :   0.7929 B(  6-C ,  7-C ) :   0.9345 B(  6-C , 15-H ) :   0.9529
B(  6-C , 16-H ) :   0.9640 B(  7-C , 17-H ) :   0.9605 B(  7-C , 18-H ) :   0.9694
B(  7-C , 19-H ) :   0.9701

Dispersion correction           -0.005191380
FINAL SINGLE POINT ENERGY      -386.237557337987

DIPOLE MOMENT
-------------

Method             : SCF
Type of density    : Electron Density
Multiplicity       :   1
Irrep              :   0
Energy             :  -386.2442539128842895 Eh
Relativity type    :
Basis              : AO
                                X                 Y                 Z
Electronic contribution:      1.814162820       4.621827048      -2.099334218
Nuclear contribution   :     -2.012899620      -5.759038612       2.358781033
                        -----------------------------------------
Total Dipole Moment    :     -0.198736799      -1.137211564       0.259446815
                        -----------------------------------------
Magnitude (a.u.)       :      1.183240934
Magnitude (Debye)      :      3.007559439

Rotational constants in cm-1:             0.109427             0.042024             0.033478
Rotational constants in MHz :          3280.551344          1259.833153          1003.638031

                             ****ORCA TERMINATED NORMALLY****
TOTAL RUN TIME: 0 days 0 hours 0 minutes 36 seconds 9 msec
