                         Program Version 6.0.0  -   RELEASE  -
|  1> ! pbe def2-sv(p) def2/J RI DEFGRID1 loosescf d4 GCP(DFT/SV(P)) printgap
|  2> %output
|  3>     printlevel normal
|  4> end
|  5> * xyz 0 1
|  6> C -3.3181982667 -1.0574906222 0.2511375909
|  7> C -1.8698302158 -0.8216993576 -0.1571931322
|  8> C -1.3560714063 0.5257214866 0.3726576075
|  9> C 0.0633808525 0.722883523 -0.0853901965
| 10> O 0.388243112 1.2786407601 -1.1145642351
| 11> O 0.9272598461 0.1833392686 0.7648293479
| 12> C 2.3255270912 0.2105753077 0.4328843543
| 13> C 2.707447897 -0.9875982679 -0.4227708367
| 14> H -3.9593334818 -0.2772635594 -0.1507446968
| 15> H -3.6620337347 -2.0159511612 -0.1278394168
| 16> H -3.412646907 -1.0591056355 1.3338018683
| 17> H -1.7856022976 -0.8297985087 -1.2460517247
| 18> H -1.2400805953 -1.6212233336 0.2374062893
| 19> H -1.3845414112 0.5274794473 1.4613650394
| 20> H -1.9683209673 1.3351333707 -0.0237916213
| 21> H 2.5402530323 1.1449262815 -0.0945745443
| 22> H 2.8377724959 0.1914391936 1.3951859732
| 23> H 2.4448958375 -1.9107839813 0.0866647598
| 24> H 2.1834847611 -0.9465290666 -1.3752080061
| 25> H 3.7764238655 -0.9715251703 -0.6078925317
| 26> *
| 27>
| 28>                          ****END OF INPUT****

CARTESIAN COORDINATES (ANGSTROEM)
---------------------------------
  C     -3.318198   -1.057491    0.251138
  C     -1.869830   -0.821699   -0.157193
  C     -1.356071    0.525721    0.372658
  C      0.063381    0.722884   -0.085390
  O      0.388243    1.278641   -1.114564
  O      0.927260    0.183339    0.764829
  C      2.325527    0.210575    0.432884
  C      2.707448   -0.987598   -0.422771
  H     -3.959333   -0.277264   -0.150745
  H     -3.662034   -2.015951   -0.127839
  H     -3.412647   -1.059106    1.333802
  H     -1.785602   -0.829799   -1.246052
  H     -1.240081   -1.621223    0.237406
  H     -1.384541    0.527479    1.461365
  H     -1.968321    1.335133   -0.023792
  H      2.540253    1.144926   -0.094575
  H      2.837772    0.191439    1.395186
  H      2.444896   -1.910784    0.086665
  H      2.183485   -0.946529   -1.375208
  H      3.776424   -0.971525   -0.607893

 Total Charge           Charge          ....    0
 Multiplicity           Mult            ....    1
 Number of Electrons    NEL             ....   64
 Basis Dimension        Dim             ....  136

ORBITAL ENERGIES
----------------

  NO   OCC          E(Eh)            E(eV)
   0   2.0000     -18.796040      -511.4663
   1   2.0000     -18.729049      -509.6433
   2   2.0000     -10.002858      -272.1916
   3   2.0000      -9.945360      -270.6270
   4   2.0000      -9.896243      -269.2905
   5   2.0000      -9.895577      -269.2723
   6   2.0000      -9.886614      -269.0284
   7   2.0000      -9.880839      -268.8713
   8   2.0000      -1.002564       -27.2812
   9   2.0000      -0.906190       -24.6587
  10   2.0000      -0.729584       -19.8530
  11   2.0000      -0.696628       -18.9562
  12   2.0000      -0.639578       -17.4038
  13   2.0000      -0.587562       -15.9884
  14   2.0000      -0.535862       -14.5815
  15   2.0000      -0.494462       -13.4550
  16   2.0000      -0.451567       -12.2878
  17   2.0000      -0.433650       -11.8002
  18   2.0000      -0.421255       -11.4629
  19   2.0000      -0.403103       -10.9690
  20   2.0000      -0.388236       -10.5644
  21   2.0000      -0.375894       -10.2286
  22   2.0000      -0.355925        -9.6852
  23   2.0000      -0.346403        -9.4261
  24   2.0000      -0.344243        -9.3673
  25   2.0000      -0.331169        -9.0116
  26   2.0000      -0.313792        -8.5387
  27   2.0000      -0.299954        -8.1622
  28   2.0000      -0.298270        -8.1163
  29   2.0000      -0.288339        -7.8461
  30   2.0000      -0.253498        -6.8980
  31   2.0000      -0.213850        -5.8192
  32   0.0000      -0.017423        -0.4741
  33   0.0000       0.037924         1.0320
  34   0.0000       0.052487         1.4282
  35   0.0000       0.075254         2.0478
  36   0.0000       0.076821         2.0904

MULLIKEN ATOMIC CHARGES
-----------------------
   0 C :   -0.241626
   1 C :   -0.243282
   2 C :   -0.114155
   3 C :    0.113434
   4 O :   -0.213933
   5 O :   -0.242794
   6 C :   -0.011948
   7 C :   -0.304247
   8 H :    0.101500
   9 H :    0.107077
  10 H :    0.099124
  11 H :    0.103540
  12 H :    0.097342
  13 H :    0.093563
  14 H :    0.098289
  15 H :    0.107825
  16 H :    0.100668
  17 H :    0.112380
  18 H :    0.125331
  19 H :    0.111911
Sum of atomic charges:    0.0000000

LOEWDIN ATOMIC CHARGES
----------------------
   0 C :   -0.338912
   1 C :   -0.225384
   2 C :   -0.241532
   3 C :    0.037420
   4 O :   -0.174976
   5 O :   -0.069155
   6 C :   -0.113290
   7 C :   -0.356453
   8 H :    0.119425
   9 H :    0.121868
  10 H :    0.118378
  11 H :    0.121978
  12 H :    0.118171
  13 H :    0.129492
  14 H :    0.133549
  15 H :    0.119446
  16 H :    0.116478
  17 H :    0.123461
  18 H :    0.130038
  19 H :    0.129998

  Mayer bond orders larger than 0.100000
B(  0-C ,  1-C ) :   1.1577 B(  0-C ,  8-H ) :   0.9534 B(  0-C ,  9-H ) :   0.9516
B(  0-C , 10-H ) :   0.9532 B(  1-C ,  2-C ) :   1.1293 B(  1-C , 11-H ) :   0.9266
B(  1-C , 12-H ) :   0.9261 B(  2-C ,  3-C ) :   1.0259 B(  2-C , 13-H ) :   0.8994
B(  2-C , 14-H ) :   0.9030 B(  3-C ,  4-O ) :   2.0428 B(  3-C ,  5-O ) :   1.2052
B(  5-O ,  6-C ) :   0.9226 B(  6-C ,  7-C ) :   1.1737 B(  6-C , 15-H ) :   0.9122
B(  6-C , 16-H ) :   0.9372 B(  7-C , 17-H ) :   0.9492 B(  7-C , 18-H ) :   0.9460
B(  7-C , 19-H ) :   0.9446

Dispersion correction           -0.014845453
FINAL SINGLE POINT ENERGY      -385.457792576713

DIPOLE MOMENT
-------------

Method             : SCF
Type of density    : Electron Density
Multiplicity       :   1
Irrep              :   0
Energy             :  -385.5326567020985635 Eh
Relativity type    :
Basis              : AO
                                X                 Y                 Z
Electronic contribution:      3.485312374       5.495057649      -0.302997572
Nuclear contribution   :     -3.385784754      -6.013737515       0.828207617
                        -----------------------------------------
Total Dipole Moment    :      0.099527620      -0.518679866       0.525210045
                        -----------------------------------------
Magnitude (a.u.)       :      0.744835648
Magnitude (Debye)      :      1.893221760

Rotational constants in cm-1:             0.131092             0.033359             0.030755
Rotational constants in MHz :          3930.042160          1000.062911           922.001086

                             ****ORCA TERMINATED NORMALLY****
TOTAL RUN TIME: 0 days 0 hours 0 minutes 10 seconds 781 msec
