                         Program Version 6.0.0  -   RELEASE  -
|  1> ! r2scan-3c def2/J RI DEFGRID2 scfconv6 printgap
|  2> %output
|  3>     printlevel normal
|  4> end
|  5> * xyz 0 1
|  6> C -3.6426985647 -0.7312124516 0.2358486321
|  7> C -2.3886752645 0.1287102119 0.3225961523
|  8> C -1.1748545864 -0.5920874499 -0.265288695
|  9> C 0.0411449581 0.2959438784 -0.2988464261
| 10> O 0.0284376709 1.4914018858 -0.5100056934
| 11> O 1.1523095155 -0.392082815 -0.0745523992
| 12> C 2.4073507109 0.311002578 -0.0878067628
| 13> C 3.4296155362 -0.5252521004 0.6581681232
| 14> H -4.4887976601 -0.2061333034 0.6702591526
| 15> H -3.8760706729 -0.9628627146 -0.80023936
| 16> H -3.5016906204 -1.6643546436 0.7753646111
| 17> H -2.1856871609 0.3808080595 1.3652211702
| 18> H -2.5348092006 1.0650883662 -0.2189629512
| 19> H -1.3899736551 -0.8786585338 -1.2979252221
| 20> H -0.9322066248 -1.494298839 0.2954711287
| 21> H 2.6991531258 0.4639706651 -1.1316272315
| 22> H 2.2599659712 1.2912347359 0.3771330386
| 23> H 3.1167942307 -0.6672383045 1.6885412085
| 24> H 3.5283851972 -1.4975519847 0.1849246345
| 25> H 4.3887442727 -0.0183750582 0.6420085677
| 26> *
| 27>
| 28>                          ****END OF INPUT****

CARTESIAN COORDINATES (ANGSTROEM)
---------------------------------
  C     -3.642699   -0.731212    0.235849
  C     -2.388675    0.128710    0.322596
  C     -1.174855   -0.592087   -0.265289
  C      0.041145    0.295944   -0.298846
  O      0.028438    1.491402   -0.510006
  O      1.152310   -0.392083   -0.074552
  C      2.407351    0.311003   -0.087807
  C      3.429616   -0.525252    0.658168
  H     -4.488798   -0.206133    0.670259
  H     -3.876071   -0.962863   -0.800239
  H     -3.501691   -1.664355    0.775365
  H     -2.185687    0.380808    1.365221
  H     -2.534809    1.065088   -0.218963
  H     -1.389974   -0.878659   -1.297925
  H     -0.932207   -1.494299    0.295471
  H      2.699153    0.463971   -1.131627
  H      2.259966    1.291235    0.377133
  H      3.116794   -0.667238    1.688541
  H      3.528385   -1.497552    0.184925
  H      4.388744   -0.018375    0.642009

 Total Charge           Charge          ....    0
 Multiplicity           Mult            ....    1
 Number of Electrons    NEL             ....   64
 Basis Dimension        Dim             ....  222

ORBITAL ENERGIES
----------------

  NO   OCC          E(Eh)            E(eV)
   0   2.0000     -18.995755      -516.9008
   1   2.0000     -18.926665      -515.0207
   2   2.0000     -10.150756      -276.2161
   3   2.0000     -10.090636      -274.5802
   4   2.0000     -10.040827      -273.2248
   5   2.0000     -10.031682      -272.9759
   6   2.0000     -10.030559      -272.9454
   7   2.0000     -10.019840      -272.6537
   8   2.0000      -1.070629       -29.1333
   9   2.0000      -0.973864       -26.5002
  10   2.0000      -0.771595       -20.9962
  11   2.0000      -0.743407       -20.2291
  12   2.0000      -0.680299       -18.5119
  13   2.0000      -0.615231       -16.7413
  14   2.0000      -0.563352       -15.3296
  15   2.0000      -0.529746       -14.4151
  16   2.0000      -0.467804       -12.7296
  17   2.0000      -0.460913       -12.5421
  18   2.0000      -0.444892       -12.1061
  19   2.0000      -0.427209       -11.6249
  20   2.0000      -0.400230       -10.8908
  21   2.0000      -0.383046       -10.4232
  22   2.0000      -0.374787       -10.1985
  23   2.0000      -0.370148       -10.0722
  24   2.0000      -0.357745        -9.7347
  25   2.0000      -0.330081        -8.9820
  26   2.0000      -0.326738        -8.8910
  27   2.0000      -0.313808        -8.5391
  28   2.0000      -0.306394        -8.3374
  29   2.0000      -0.302386        -8.2283
  30   2.0000      -0.270910        -7.3718
  31   2.0000      -0.234342        -6.3768
  32   0.0000      -0.012716        -0.3460
  33   0.0000       0.078843         2.1454
  34   0.0000       0.096569         2.6278
  35   0.0000       0.102950         2.8014
  36   0.0000       0.118854         3.2342

MULLIKEN ATOMIC CHARGES
-----------------------
   0 C :   -0.467603
   1 C :   -0.229738
   2 C :   -0.331507
   3 C :    0.384369
   4 O :   -0.432412
   5 O :   -0.167564
   6 C :   -0.154118
   7 C :   -0.440514
   8 H :    0.150103
   9 H :    0.143326
  10 H :    0.140284
  11 H :    0.138252
  12 H :    0.167452
  13 H :    0.167508
  14 H :    0.164243
  15 H :    0.146644
  16 H :    0.170448
  17 H :    0.152037
  18 H :    0.152030
  19 H :    0.146762
Sum of atomic charges:    0.0000000

LOEWDIN ATOMIC CHARGES
----------------------
   0 C :   -0.421517
   1 C :   -0.293983
   2 C :   -0.231483
   3 C :    0.360702
   4 O :   -0.436226
   5 O :   -0.598825
   6 C :    0.032906
   7 C :   -0.386725
   8 H :    0.152685
   9 H :    0.150009
  10 H :    0.149587
  11 H :    0.156222
  12 H :    0.168149
  13 H :    0.181620
  14 H :    0.178015
  15 H :    0.174992
  16 H :    0.186795
  17 H :    0.158852
  18 H :    0.158970
  19 H :    0.159257

  Mayer bond orders larger than 0.100000
B(  0-C ,  1-C ) :   0.8839 B(  0-C ,  8-H ) :   0.9751 B(  0-C ,  9-H ) :   0.9882
B(  0-C , 10-H ) :   0.9785 B(  1-C ,  2-C ) :   0.9326 B(  1-C , 11-H ) :   0.9614
B(  1-C , 12-H ) :   0.9646 B(  2-C ,  3-C ) :   0.9861 B(  2-C , 13-H ) :   0.9466
B(  2-C , 14-H ) :   0.9770 B(  3-C ,  4-O ) :   1.8073 B(  3-C ,  5-O ) :   1.0854
B(  5-O ,  6-C ) :   0.7918 B(  6-C ,  7-C ) :   0.9453 B(  6-C , 15-H ) :   0.9451
B(  6-C , 16-H ) :   0.9625 B(  7-C , 17-H ) :   0.9746 B(  7-C , 18-H ) :   0.9693
B(  7-C , 19-H ) :   0.9680

Dispersion correction           -0.004786316
FINAL SINGLE POINT ENERGY      -386.235872489555

DIPOLE MOMENT
-------------

Method             : SCF
Type of density    : Electron Density
Multiplicity       :   1
Irrep              :   0
Energy             :  -386.2427687764990196 Eh
Relativity type    :
Basis              : AO
                                X                 Y                 Z
Electronic contribution:      3.042794517       3.220639196      -2.185666301
Nuclear contribution   :     -2.718366653      -3.913089829       2.383815470
                        -----------------------------------------
Total Dipole Moment    :      0.324427864      -0.692450633       0.198149169
                        -----------------------------------------
Magnitude (a.u.)       :      0.789939498
Magnitude (Debye)      :      2.007866637

Rotational constants in cm-1:             0.188520             0.027610             0.025274
Rotational constants in MHz :          5651.695045           827.727709           757.704598

                             ****ORCA TERMINATED NORMALLY****
TOTAL RUN TIME: 0 days 0 hours 0 minutes 28 seconds 566 msec
