                         Program Version 6.0.0  -   RELEASE  -
|  1> ! r2scan-3c def2/J RI DEFGRID2 scfconv6 printgap
|  2> %output
|  3>     printlevel normal
|  4> end
|  5> %cpcm
|  6>     smd true
|  7>     smdsolvent "water"
|  8> end
|  9> * xyz 0 1
| 10> C -3.6426985647 -0.7312124516 0.2358486321
| 11> C -2.3886752645 0.1287102119 0.3225961523
| 12> C -1.1748545864 -0.5920874499 -0.265288695
| 13> C 0.0411449581 0.2959438784 -0.2988464261
| 14> O 0.0284376709 1.4914018858 -0.5100056934
| 15> O 1.1523095155 -0.392082815 -0.0745523992
| 16> C 2.4073507109 0.311002578 -0.0878067628
| 17> C 3.4296155362 -0.5252521004 0.6581681232
| 18> H -4.4887976601 -0.2061333034 0.6702591526
| 19> H -3.8760706729 -0.9628627146 -0.80023936
| 20> H -3.5016906204 -1.6643546436 0.7753646111
| 21> H -2.1856871609 0.3808080595 1.3652211702
| 22> H -2.5348092006 1.0650883662 -0.2189629512
| 23> H -1.3899736551 -0.8786585338 -1.2979252221
| 24> H -0.9322066248 -1.494298839 0.2954711287
| 25> H 2.6991531258 0.4639706651 -1.1316272315
| 26> H 2.2599659712 1.2912347359 0.3771330386
| 27> H 3.1167942307 -0.6672383045 1.6885412085
| 28> H 3.5283851972 -1.4975519847 0.1849246345
| 29> H 4.3887442727 -0.0183750582 0.6420085677
| 30> *
| 31>
| 32>                          ****END OF INPUT****

CARTESIAN COORDINATES (ANGSTROEM)
---------------------------------
  C     -3.642699   -0.731212    0.235849
  C     -2.388675    0.128710    0.322596
  C     -1.174855   -0.592087   -0.265289
  C      0.041145    0.295944   -0.298846
  O      0.028438    1.491402   -0.510006
  O      1.152310   -0.392083   -0.074552
  C      2.407351    0.311003   -0.087807
  C      3.429616   -0.525252    0.658168
  H     -4.488798   -0.206133    0.670259
  H     -3.876071   -0.962863   -0.800239
  H     -3.501691   -1.664355    0.775365
  H     -2.185687    0.380808    1.365221
  H     -2.534809    1.065088   -0.218963
  H     -1.389974   -0.878659   -1.297925
  H     -0.932207   -1.494299    0.295471
  H      2.699153    0.463971   -1.131627
  H      2.259966    1.291235    0.377133
  H      3.116794   -0.667238    1.688541
  H      3.528385   -1.497552    0.184925
  H      4.388744   -0.018375    0.642009

 Total Charge           Charge          ....    0
 Multiplicity           Mult            ....    1
 Number of Electrons    NEL             ....   64
 Basis Dimension        Dim             ....  222

ORBITAL ENERGIES
----------------

  NO   OCC          E(Eh)            E(eV)
   0   2.0000     -19.002124      -517.0741
   1   2.0000     -18.943121      -515.4685
   2   2.0000     -10.161920      -276.5199
   3   2.0000     -10.083278      -274.3799
   4   2.0000     -10.035193      -273.0715
   5   2.0000     -10.025715      -272.8136
   6   2.0000     -10.018682      -272.6222
   7   2.0000     -10.010953      -272.4119
   8   2.0000      -1.078591       -29.3500
   9   2.0000      -0.988212       -26.8906
  10   2.0000      -0.767389       -20.8817
  11   2.0000      -0.736124       -20.0310
  12   2.0000      -0.674128       -18.3440
  13   2.0000      -0.608888       -16.5687
  14   2.0000      -0.557369       -15.1668
  15   2.0000      -0.528823       -14.3900
  16   2.0000      -0.469880       -12.7861
  17   2.0000      -0.461709       -12.5637
  18   2.0000      -0.448578       -12.2064
  19   2.0000      -0.429516       -11.6877
  20   2.0000      -0.396330       -10.7847
  21   2.0000      -0.377043       -10.2599
  22   2.0000      -0.372080       -10.1248
  23   2.0000      -0.360551        -9.8111
  24   2.0000      -0.350066        -9.5258
  25   2.0000      -0.327602        -8.9145
  26   2.0000      -0.321808        -8.7568
  27   2.0000      -0.311401        -8.4737
  28   2.0000      -0.304259        -8.2793
  29   2.0000      -0.296340        -8.0638
  30   2.0000      -0.277321        -7.5463
  31   2.0000      -0.251303        -6.8383
  32   0.0000      -0.021205        -0.5770
  33   0.0000       0.081386         2.2146
  34   0.0000       0.104161         2.8344
  35   0.0000       0.113024         3.0755
  36   0.0000       0.127076         3.4579

MULLIKEN ATOMIC CHARGES
-----------------------
   0 C :   -0.514362
   1 C :   -0.234767
   2 C :   -0.345036
   3 C :    0.431079
   4 O :   -0.519529
   5 O :   -0.185160
   6 C :   -0.153544
   7 C :   -0.487893
   8 H :    0.160462
   9 H :    0.158166
  10 H :    0.155822
  11 H :    0.155881
  12 H :    0.155786
  13 H :    0.199436
  14 H :    0.180874
  15 H :    0.171556
  16 H :    0.172819
  17 H :    0.165455
  18 H :    0.164348
  19 H :    0.168607
Sum of atomic charges:   -0.0000000

LOEWDIN ATOMIC CHARGES
----------------------
   0 C :   -0.426559
   1 C :   -0.295444
   2 C :   -0.228229
   3 C :    0.372139
   4 O :   -0.498212
   5 O :   -0.600872
   6 C :    0.035883
   7 C :   -0.390023
   8 H :    0.155278
   9 H :    0.154281
  10 H :    0.154497
  11 H :    0.160148
  12 H :    0.162837
  13 H :    0.193616
  14 H :    0.186264
  15 H :    0.183513
  16 H :    0.188311
  17 H :    0.162149
  18 H :    0.162368
  19 H :    0.168054

  Mayer bond orders larger than 0.100000
B(  0-C ,  1-C ) :   0.8845 B(  0-C ,  8-H ) :   0.9720 B(  0-C ,  9-H ) :   0.9846
B(  0-C , 10-H ) :   0.9766 B(  1-C ,  2-C ) :   0.9185 B(  1-C , 11-H ) :   0.9625
B(  1-C , 12-H ) :   0.9644 B(  2-C ,  3-C ) :   0.9893 B(  2-C , 13-H ) :   0.9334
B(  2-C , 14-H ) :   0.9683 B(  3-C ,  4-O ) :   1.7433 B(  3-C ,  5-O ) :   1.1120
B(  5-O ,  6-C ) :   0.7790 B(  6-C ,  7-C ) :   0.9436 B(  6-C , 15-H ) :   0.9365
B(  6-C , 16-H ) :   0.9572 B(  7-C , 17-H ) :   0.9730 B(  7-C , 18-H ) :   0.9665
B(  7-C , 19-H ) :   0.9616

Dispersion correction           -0.004786316
FINAL SINGLE POINT ENERGY      -386.241185503258

DIPOLE MOMENT
-------------

Method             : SCF
Type of density    : Electron Density
Multiplicity       :   1
Irrep              :   0
Energy             :  -386.2480817902027184 Eh
Relativity type    :
Basis              : AO
                                X                 Y                 Z
Electronic contribution:      3.144467166       2.880899210      -2.133132977
Nuclear contribution   :     -2.718366653      -3.913089829       2.383815470
                        -----------------------------------------
Total Dipole Moment    :      0.426100513      -1.032190618       0.250682493
                        -----------------------------------------
Magnitude (a.u.)       :      1.144474042
Magnitude (Debye)      :      2.909021830

Rotational constants in cm-1:             0.188520             0.027610             0.025274
Rotational constants in MHz :          5651.695045           827.727709           757.704598

                             ****ORCA TERMINATED NORMALLY****
TOTAL RUN TIME: 0 days 0 hours 0 minutes 36 seconds 963 msec
