                         Program Version 6.0.1  -  RELEASE   -
|  1> ! pbe def2-sv(p) def2/J RI DEFGRID1 loosescf d4 GCP(DFT/SV(P)) printgap
|  2> %output
|  3>     printlevel normal
|  4> end
|  5> * xyz 0 1
|  6> C -3.7757916126 0.5563045368 -1.7582819509
|  7> C -3.2848748301 -0.4466076826 -0.7128182681
|  8> H -3.5528888681 -1.4633356477 -1.0124918123
|  9> C -1.7845275853 -0.3775586843 -0.5308954218
| 10> C -0.9853738496 -1.4823805899 -0.7959621789
| 11> C 0.3859062518 -1.4183791032 -0.6396757232
| 12> C 1.0176895979 -0.2513860431 -0.2132816795
| 13> C 0.1919477476 0.8364989052 0.0513486769
| 14> C -1.1786758165 0.7938079179 -0.0947003898
| 15> F 0.7362094917 2.0031164832 0.5090207337
| 16> C 2.4788512711 -0.1951487261 -0.0496077406
| 17> C 3.213579104 0.8881850337 -0.5240136182
| 18> C 4.5878644645 0.9208176182 -0.3723750908
| 19> C 5.2453473689 -0.1231097142 0.2565790232
| 20> C 4.5216730239 -1.2044241398 0.7323009706
| 21> C 3.1485294724 -1.2432417357 0.5781960867
| 22> C -3.9102330095 -0.2137749137 0.6491161978
| 23> O -4.2172418857 -1.1131477508 1.4035397361
| 24> O -4.0612680987 1.0590084764 0.9578211733
| 25> H -3.5525815356 1.5733386071 -1.4522148069
| 26> H -3.283768295 0.3574507701 -2.7060539877
| 27> H -4.8499494294 0.460122434 -1.8917781913
| 28> H -1.4394534176 -2.4019024272 -1.1306059092
| 29> H 0.991865657 -2.2816000269 -0.8657153725
| 30> H -1.7575984448 1.6720914395 0.1426371894
| 31> H 2.7089706418 1.70180834 -1.0234071619
| 32> H 5.1465707266 1.7649439591 -0.7475335524
| 33> H 6.3175789215 -0.0936123035 0.3765464856
| 34> H 5.0288862324 -2.0191883045 1.226605807
| 35> H 2.5841687712 -2.07915734 0.9636806302
| 36> H -4.4481011588 1.1893559395 1.8454828019
| 37> *
| 38>
| 39>                          ****END OF INPUT****

CARTESIAN COORDINATES (ANGSTROEM)
---------------------------------
  C     -3.775792    0.556305   -1.758282
  C     -3.284875   -0.446608   -0.712818
  H     -3.552889   -1.463336   -1.012492
  C     -1.784528   -0.377559   -0.530895
  C     -0.985374   -1.482381   -0.795962
  C      0.385906   -1.418379   -0.639676
  C      1.017690   -0.251386   -0.213282
  C      0.191948    0.836499    0.051349
  C     -1.178676    0.793808   -0.094700
  F      0.736209    2.003116    0.509021
  C      2.478851   -0.195149   -0.049608
  C      3.213579    0.888185   -0.524014
  C      4.587864    0.920818   -0.372375
  C      5.245347   -0.123110    0.256579
  C      4.521673   -1.204424    0.732301
  C      3.148529   -1.243242    0.578196
  C     -3.910233   -0.213775    0.649116
  O     -4.217242   -1.113148    1.403540
  O     -4.061268    1.059008    0.957821
  H     -3.552582    1.573339   -1.452215
  H     -3.283768    0.357451   -2.706054
  H     -4.849949    0.460122   -1.891778
  H     -1.439453   -2.401902   -1.130606
  H      0.991866   -2.281600   -0.865715
  H     -1.757598    1.672091    0.142637
  H      2.708971    1.701808   -1.023407
  H      5.146571    1.764944   -0.747534
  H      6.317579   -0.093612    0.376546
  H      5.028886   -2.019188    1.226606
  H      2.584169   -2.079157    0.963681
  H     -4.448101    1.189356    1.845483

 Total Charge           Charge          ....    0
 Multiplicity           Mult            ....    1
 Number of Electrons    NEL             ....  128
 Basis Dimension        Dim             ....  278

ORBITAL ENERGIES
----------------

  NO   OCC          E(Eh)            E(eV)
   0   2.0000     -24.270249      -660.4270
   1   2.0000     -18.810132      -511.8497
   2   2.0000     -18.739543      -509.9289
   3   2.0000     -10.017709      -272.5957
   4   2.0000      -9.976466      -271.4734
   5   2.0000      -9.920496      -269.9504
   6   2.0000      -9.918637      -269.8998
   7   2.0000      -9.912365      -269.7292
   8   2.0000      -9.908826      -269.6329
   9   2.0000      -9.903810      -269.4964
  10   2.0000      -9.899899      -269.3899
  11   2.0000      -9.898811      -269.3603
  12   2.0000      -9.895534      -269.2712
  13   2.0000      -9.894896      -269.2538
  14   2.0000      -9.894273      -269.2369
  15   2.0000      -9.894030      -269.2302
  16   2.0000      -9.893793      -269.2238
  17   2.0000      -9.890590      -269.1366
  18   2.0000      -1.094954       -29.7952
  19   2.0000      -1.018446       -27.7133
  20   2.0000      -0.915116       -24.9016
  21   2.0000      -0.800542       -21.7839
  22   2.0000      -0.779615       -21.2144
  23   2.0000      -0.741455       -20.1760
  24   2.0000      -0.697621       -18.9832
  25   2.0000      -0.678961       -18.4755
  26   2.0000      -0.672406       -18.2971
  27   2.0000      -0.649569       -17.6757
  28   2.0000      -0.611018       -16.6266
  29   2.0000      -0.584752       -15.9119
  30   2.0000      -0.562924       -15.3180
  31   2.0000      -0.547486       -14.8979
  32   2.0000      -0.537373       -14.6227
  33   2.0000      -0.527592       -14.3565
  34   2.0000      -0.490268       -13.3409
  35   2.0000      -0.468817       -12.7572
  36   2.0000      -0.455335       -12.3903
  37   2.0000      -0.438983       -11.9453
  38   2.0000      -0.429838       -11.6965
  39   2.0000      -0.417534       -11.3617
  40   2.0000      -0.417339       -11.3564
  41   2.0000      -0.409578       -11.1452
  42   2.0000      -0.400421       -10.8960
  43   2.0000      -0.394889       -10.7455
  44   2.0000      -0.391845       -10.6626
  45   2.0000      -0.387522       -10.5450
  46   2.0000      -0.375934       -10.2297
  47   2.0000      -0.367245        -9.9932
  48   2.0000      -0.361543        -9.8381
  49   2.0000      -0.345399        -9.3988
  50   2.0000      -0.342708        -9.3256
  51   2.0000      -0.333412        -9.0726
  52   2.0000      -0.328430        -8.9370
  53   2.0000      -0.319124        -8.6838
  54   2.0000      -0.317579        -8.6418
  55   2.0000      -0.312629        -8.5071
  56   2.0000      -0.302670        -8.2361
  57   2.0000      -0.294441        -8.0122
  58   2.0000      -0.276496        -7.5238
  59   2.0000      -0.253880        -6.9084
  60   2.0000      -0.232142        -6.3169
  61   2.0000      -0.230577        -6.2743
  62   2.0000      -0.223049        -6.0695
  63   2.0000      -0.207257        -5.6398
  64   0.0000      -0.064784        -1.7629
  65   0.0000      -0.041241        -1.1222
  66   0.0000      -0.036709        -0.9989
  67   0.0000      -0.027796        -0.7564
  68   0.0000      -0.006911        -0.1881

MULLIKEN ATOMIC CHARGES
-----------------------
   0 C :   -0.225296
   1 C :   -0.126066
   2 H :    0.083450
   3 C :    0.116728
   4 C :   -0.101066
   5 C :   -0.118476
   6 C :    0.031099
   7 C :    0.272038
   8 C :   -0.235135
   9 F :   -0.172047
  10 C :    0.111957
  11 C :   -0.096219
  12 C :   -0.052315
  13 C :   -0.045388
  14 C :   -0.049273
  15 C :   -0.111284
  16 C :    0.111630
  17 O :   -0.182492
  18 O :   -0.286845
  19 H :    0.122316
  20 H :    0.109719
  21 H :    0.109474
  22 H :    0.043059
  23 H :    0.051000
  24 H :    0.056176
  25 H :    0.049620
  26 H :    0.054149
  27 H :    0.054918
  28 H :    0.053623
  29 H :    0.050142
  30 H :    0.320804
Sum of atomic charges:   -0.0000000

LOEWDIN ATOMIC CHARGES
----------------------
   0 C :   -0.320748
   1 C :   -0.149262
   2 H :    0.138305
   3 C :   -0.019877
   4 C :   -0.127844
   5 C :   -0.102013
   6 C :   -0.054808
   7 C :    0.081473
   8 C :   -0.146250
   9 F :   -0.055552
  10 C :   -0.028418
  11 C :   -0.108452
  12 C :   -0.120103
  13 C :   -0.122194
  14 C :   -0.120730
  15 C :   -0.113609
  16 C :    0.033200
  17 O :   -0.166358
  18 O :   -0.193558
  19 H :    0.125407
  20 H :    0.126263
  21 H :    0.124216
  22 H :    0.126793
  23 H :    0.130030
  24 H :    0.136323
  25 H :    0.125526
  26 H :    0.124918
  27 H :    0.124153
  28 H :    0.124696
  29 H :    0.125851
  30 H :    0.302622

  Mayer bond orders larger than 0.100000
B(  0-C ,  1-C ) :   1.0886 B(  0-C , 19-H ) :   0.9369 B(  0-C , 20-H ) :   0.9457
B(  0-C , 21-H ) :   0.9503 B(  1-C ,  2-H ) :   0.8761 B(  1-C ,  3-C ) :   1.0043
B(  1-C , 16-C ) :   0.9375 B(  3-C ,  4-C ) :   1.3875 B(  3-C ,  8-C ) :   1.3014
B(  4-C ,  5-C ) :   1.3478 B(  4-C , 22-H ) :   0.9631 B(  5-C ,  6-C ) :   1.3677
B(  5-C , 23-H ) :   0.9574 B(  6-C ,  7-C ) :   1.3311 B(  6-C , 10-C ) :   0.9731
B(  7-C ,  8-C ) :   1.3370 B(  7-C ,  9-F ) :   1.1055 B(  8-C , 24-H ) :   0.9542
B( 10-C , 11-C ) :   1.3781 B( 10-C , 15-C ) :   1.3793 B( 11-C , 12-C ) :   1.3753
B( 11-C , 25-H ) :   0.9608 B( 12-C , 13-C ) :   1.3741 B( 12-C , 26-H ) :   0.9631
B( 13-C , 14-C ) :   1.3766 B( 13-C , 27-H ) :   0.9655 B( 14-C , 15-C ) :   1.3718
B( 14-C , 28-H ) :   0.9637 B( 15-C , 29-H ) :   0.9585 B( 16-C , 17-O ) :   2.1369
B( 16-C , 18-O ) :   1.2505 B( 18-O , 30-H ) :   0.8159

Dispersion correction           -0.040106844
FINAL SINGLE POINT ENERGY      -828.016505730609

DIPOLE MOMENT
-------------

Method             : SCF
Type of density    : Electron Density
Multiplicity       :   1
Irrep              :   0
Energy             :  -828.1066825716420681 Eh
Relativity type    :
Basis              : AO
                                X                 Y                 Z
Electronic contribution:      0.809409471       3.648137617       5.947388091
Nuclear contribution   :     -0.904423718      -3.376262065      -6.323534192
                        -----------------------------------------
Total Dipole Moment    :     -0.095014246       0.271875552      -0.376146101
                        -----------------------------------------
Magnitude (a.u.)       :      0.473740343
Magnitude (Debye)      :      1.204152255

Rotational constants in cm-1:             0.038591             0.006437             0.006144
Rotational constants in MHz :          1156.914736           192.964953           184.186204

                             ****ORCA TERMINATED NORMALLY****
TOTAL RUN TIME: 0 days 0 hours 0 minutes 16 seconds 307 msec
