                         Program Version 6.0.0  -   RELEASE  -
|  1> ! pbe def2-sv(p) def2/J RI DEFGRID1 loosescf d4 GCP(DFT/SV(P)) printgap
|  2> %output
|  3>     printlevel normal
|  4> end
|  5> * xyz 0 1
|  6> C -2.0805112909 -1.5443437272 -0.0580365135
|  7> C -2.4157478741 -0.0594883953 -0.1283026693
|  8> C -1.3935930989 0.7878410362 0.6379717839
|  9> C -0.042643083 0.7169699731 -0.0264636811
| 10> O 0.1782220884 1.0243457979 -1.1795027534
| 11> O 0.8907965735 0.2807752142 0.8102380029
| 12> C 2.2362180996 0.137155267 0.3254646025
| 13> C 2.4436134471 -1.2262399534 -0.3164880087
| 14> H -2.0383977299 -1.8780452884 0.9759483391
| 15> H -2.8338582402 -2.1277223006 -0.5805924922
| 16> H -1.1152916829 -1.7388720861 -0.5216235357
| 17> H -3.4044059681 0.1139880679 0.2972983618
| 18> H -2.4276153018 0.2664298787 -1.1701839822
| 19> H -1.2950977735 0.4447889209 1.6670191504
| 20> H -1.710418413 1.8318324761 0.6293147852
| 21> H 2.4347081064 0.9364549954 -0.3950905965
| 22> H 2.8622329388 0.2588684539 1.209833488
| 23> H 1.8204557854 -1.3190769749 -1.2034862755
| 24> H 3.4838608704 -1.333876689 -0.6055916249
| 25> H 2.1820452138 -2.0137677303 0.3852114153
| 26> *
| 27>
| 28>                          ****END OF INPUT****

CARTESIAN COORDINATES (ANGSTROEM)
---------------------------------
  C     -2.080511   -1.544344   -0.058037
  C     -2.415748   -0.059488   -0.128303
  C     -1.393593    0.787841    0.637972
  C     -0.042643    0.716970   -0.026464
  O      0.178222    1.024346   -1.179503
  O      0.890797    0.280775    0.810238
  C      2.236218    0.137155    0.325465
  C      2.443613   -1.226240   -0.316488
  H     -2.038398   -1.878045    0.975948
  H     -2.833858   -2.127722   -0.580592
  H     -1.115292   -1.738872   -0.521624
  H     -3.404406    0.113988    0.297298
  H     -2.427615    0.266430   -1.170184
  H     -1.295098    0.444789    1.667019
  H     -1.710418    1.831832    0.629315
  H      2.434708    0.936455   -0.395091
  H      2.862233    0.258868    1.209833
  H      1.820456   -1.319077   -1.203486
  H      3.483861   -1.333877   -0.605592
  H      2.182045   -2.013768    0.385211

 Total Charge           Charge          ....    0
 Multiplicity           Mult            ....    1
 Number of Electrons    NEL             ....   64
 Basis Dimension        Dim             ....  136

ORBITAL ENERGIES
----------------

  NO   OCC          E(Eh)            E(eV)
   0   2.0000     -18.797704      -511.5115
   1   2.0000     -18.730867      -509.6928
   2   2.0000     -10.004325      -272.2315
   3   2.0000      -9.946166      -270.6489
   4   2.0000      -9.895561      -269.2719
   5   2.0000      -9.891512      -269.1617
   6   2.0000      -9.887330      -269.0479
   7   2.0000      -9.877844      -268.7898
   8   2.0000      -1.003824       -27.3154
   9   2.0000      -0.908194       -24.7132
  10   2.0000      -0.727445       -19.7948
  11   2.0000      -0.696805       -18.9610
  12   2.0000      -0.636296       -17.3145
  13   2.0000      -0.591663       -16.1000
  14   2.0000      -0.532517       -14.4905
  15   2.0000      -0.492137       -13.3917
  16   2.0000      -0.452067       -12.3014
  17   2.0000      -0.434071       -11.8117
  18   2.0000      -0.425084       -11.5671
  19   2.0000      -0.395414       -10.7598
  20   2.0000      -0.389508       -10.5991
  21   2.0000      -0.375482       -10.2174
  22   2.0000      -0.361371        -9.8334
  23   2.0000      -0.352283        -9.5861
  24   2.0000      -0.338310        -9.2059
  25   2.0000      -0.330197        -8.9851
  26   2.0000      -0.305462        -8.3120
  27   2.0000      -0.298034        -8.1099
  28   2.0000      -0.297560        -8.0970
  29   2.0000      -0.287289        -7.8175
  30   2.0000      -0.255477        -6.9519
  31   2.0000      -0.217448        -5.9171
  32   0.0000      -0.020349        -0.5537
  33   0.0000       0.036215         0.9855
  34   0.0000       0.057404         1.5620
  35   0.0000       0.069842         1.9005
  36   0.0000       0.079802         2.1715

MULLIKEN ATOMIC CHARGES
-----------------------
   0 C :   -0.292353
   1 C :   -0.203798
   2 C :   -0.117714
   3 C :    0.088926
   4 O :   -0.212665
   5 O :   -0.234350
   6 C :   -0.015916
   7 C :   -0.307456
   8 H :    0.099762
   9 H :    0.107898
  10 H :    0.118073
  11 H :    0.092471
  12 H :    0.108374
  13 H :    0.092293
  14 H :    0.111956
  15 H :    0.107770
  16 H :    0.101499
  17 H :    0.129179
  18 H :    0.112106
  19 H :    0.113944
Sum of atomic charges:   -0.0000000

LOEWDIN ATOMIC CHARGES
----------------------
   0 C :   -0.343118
   1 C :   -0.226743
   2 C :   -0.246165
   3 C :    0.037061
   4 O :   -0.175337
   5 O :   -0.065689
   6 C :   -0.113507
   7 C :   -0.356673
   8 H :    0.117832
   9 H :    0.121823
  10 H :    0.119869
  11 H :    0.117988
  12 H :    0.124545
  13 H :    0.126196
  14 H :    0.141688
  15 H :    0.119314
  16 H :    0.116807
  17 H :    0.129677
  18 H :    0.130173
  19 H :    0.124258

  Mayer bond orders larger than 0.100000
B(  0-C ,  1-C ) :   1.1539 B(  0-C ,  8-H ) :   0.9536 B(  0-C ,  9-H ) :   0.9513
B(  0-C , 10-H ) :   0.9476 B(  1-C ,  2-C ) :   1.1127 B(  1-C , 11-H ) :   0.9286
B(  1-C , 12-H ) :   0.9204 B(  2-C ,  3-C ) :   1.0203 B(  2-C , 13-H ) :   0.9103
B(  2-C , 14-H ) :   0.8927 B(  3-C ,  4-O ) :   2.0351 B(  3-C ,  5-O ) :   1.2174
B(  5-O ,  6-C ) :   0.9231 B(  6-C ,  7-C ) :   1.1740 B(  6-C , 15-H ) :   0.9131
B(  6-C , 16-H ) :   0.9372 B(  7-C , 17-H ) :   0.9438 B(  7-C , 18-H ) :   0.9438
B(  7-C , 19-H ) :   0.9485

Dispersion correction           -0.015495240
FINAL SINGLE POINT ENERGY      -385.458677177083

DIPOLE MOMENT
-------------

Method             : SCF
Type of density    : Electron Density
Multiplicity       :   1
Irrep              :   0
Energy             :  -385.5335020551563616 Eh
Relativity type    :
Basis              : AO
                                X                 Y                 Z
Electronic contribution:      2.066108529       5.806657666      -0.080985170
Nuclear contribution   :     -1.899680474      -6.134081209       0.640036676
                        -----------------------------------------
Total Dipole Moment    :      0.166428055      -0.327423542       0.559051505
                        -----------------------------------------
Magnitude (a.u.)       :      0.668911847
Magnitude (Debye)      :      1.700238795

Rotational constants in cm-1:             0.110687             0.041011             0.036417
Rotational constants in MHz :          3318.300298          1229.468638          1091.767258

                             ****ORCA TERMINATED NORMALLY****
TOTAL RUN TIME: 0 days 0 hours 0 minutes 10 seconds 900 msec
