                         Program Version 6.0.0  -   RELEASE  -
|  1> ! pbe def2-sv(p) def2/J RI DEFGRID1 loosescf d4 GCP(DFT/SV(P)) printgap
|  2> %output
|  3>     printlevel normal
|  4> end
|  5> * xyz 0 1
|  6> C 2.1877856953 1.1136091239 -0.5478402096
|  7> C 1.1984666495 0.2902302242 0.2728084121
|  8> C 1.8495688875 -1.0218795921 0.7160743642
|  9> N 0.0265934287 -0.0027561262 -0.5441036277
| 10> C -1.2055297641 -0.3164137839 0.1638126204
| 11> C -2.1497590256 -1.0255305981 -0.8069162224
| 12> C -1.8961386258 0.9134931236 0.7700857572
| 13> H 1.7549810402 2.0734943803 -0.8228670575
| 14> H 3.0925897434 1.2958485307 0.0255487026
| 15> H 2.4487805464 0.5747973289 -1.45492479
| 16> H 0.9310345043 0.8683264956 1.177903677
| 17> H 2.1267620492 -1.6032403282 -0.1584673171
| 18> H 1.1632764846 -1.6114096001 1.3176780113
| 19> H 2.7383858903 -0.8180417211 1.3069992632
| 20> H -0.1492171403 0.7634030711 -1.1861164229
| 21> H -0.9486481927 -1.0099852316 0.971977823
| 22> H -3.0512622996 -1.3461913509 -0.2923433122
| 23> H -2.4282986428 -0.3540422234 -1.6156388907
| 24> H -1.6559703731 -1.8932008363 -1.2336187502
| 25> H -1.2317044645 1.4327368903 1.4579061005
| 26> H -2.7864369552 0.6144781694 1.3165671491
| 27> H -2.1878621421 1.6053606535 -0.0183119466
| 28> *
| 29>
| 30>                          ****END OF INPUT****

CARTESIAN COORDINATES (ANGSTROEM)
---------------------------------
  C      2.187786    1.113609   -0.547840
  C      1.198467    0.290230    0.272808
  C      1.849569   -1.021880    0.716074
  N      0.026593   -0.002756   -0.544104
  C     -1.205530   -0.316414    0.163813
  C     -2.149759   -1.025531   -0.806916
  C     -1.896139    0.913493    0.770086
  H      1.754981    2.073494   -0.822867
  H      3.092590    1.295849    0.025549
  H      2.448781    0.574797   -1.454925
  H      0.931035    0.868326    1.177904
  H      2.126762   -1.603240   -0.158467
  H      1.163276   -1.611410    1.317678
  H      2.738386   -0.818042    1.306999
  H     -0.149217    0.763403   -1.186116
  H     -0.948648   -1.009985    0.971978
  H     -3.051262   -1.346191   -0.292343
  H     -2.428299   -0.354042   -1.615639
  H     -1.655970   -1.893201   -1.233619
  H     -1.231704    1.432737    1.457906
  H     -2.786437    0.614478    1.316567
  H     -2.187862    1.605361   -0.018312

 Total Charge           Charge          ....    0
 Multiplicity           Mult            ....    1
 Number of Electrons    NEL             ....   58
 Basis Dimension        Dim             ....  128

ORBITAL ENERGIES
----------------

  NO   OCC          E(Eh)            E(eV)
   0   2.0000     -13.960125      -379.8743
   1   2.0000      -9.914213      -269.7795
   2   2.0000      -9.913909      -269.7712
   3   2.0000      -9.873241      -268.6645
   4   2.0000      -9.871033      -268.6045
   5   2.0000      -9.866149      -268.4716
   6   2.0000      -9.864849      -268.4362
   7   2.0000      -0.818595       -22.2751
   8   2.0000      -0.707026       -19.2392
   9   2.0000      -0.649363       -17.6701
  10   2.0000      -0.610927       -16.6242
  11   2.0000      -0.608567       -16.5599
  12   2.0000      -0.520545       -14.1647
  13   2.0000      -0.508020       -13.8239
  14   2.0000      -0.437306       -11.8997
  15   2.0000      -0.411369       -11.1939
  16   2.0000      -0.400534       -10.8991
  17   2.0000      -0.380269       -10.3476
  18   2.0000      -0.363020        -9.8783
  19   2.0000      -0.355309        -9.6684
  20   2.0000      -0.339838        -9.2475
  21   2.0000      -0.338558        -9.2126
  22   2.0000      -0.328161        -8.9297
  23   2.0000      -0.309055        -8.4098
  24   2.0000      -0.300896        -8.1878
  25   2.0000      -0.294135        -8.0038
  26   2.0000      -0.286865        -7.8060
  27   2.0000      -0.281436        -7.6583
  28   2.0000      -0.168499        -4.5851
  29   0.0000       0.030082         0.8186
  30   0.0000       0.055864         1.5201
  31   0.0000       0.058907         1.6029
  32   0.0000       0.073457         1.9989
  33   0.0000       0.093853         2.5539

MULLIKEN ATOMIC CHARGES
-----------------------
   0 C :   -0.267915
   1 C :   -0.075411
   2 C :   -0.226719
   3 N :   -0.327883
   4 C :   -0.107409
   5 C :   -0.214676
   6 C :   -0.251820
   7 H :    0.098012
   8 H :    0.101761
   9 H :    0.103070
  10 H :    0.056331
  11 H :    0.093723
  12 H :    0.099622
  13 H :    0.087805
  14 H :    0.190945
  15 H :    0.075387
  16 H :    0.091707
  17 H :    0.083857
  18 H :    0.101987
  19 H :    0.105811
  20 H :    0.096009
  21 H :    0.085808
Sum of atomic charges:    0.0000000

LOEWDIN ATOMIC CHARGES
----------------------
   0 C :   -0.336998
   1 C :   -0.101569
   2 C :   -0.337684
   3 N :   -0.244739
   4 C :   -0.105380
   5 C :   -0.335148
   6 C :   -0.349373
   7 H :    0.114135
   8 H :    0.122497
   9 H :    0.120826
  10 H :    0.089947
  11 H :    0.119184
  12 H :    0.114760
  13 H :    0.115089
  14 H :    0.202917
  15 H :    0.111856
  16 H :    0.116303
  17 H :    0.113500
  18 H :    0.120523
  19 H :    0.116398
  20 H :    0.119865
  21 H :    0.113090

  Mayer bond orders larger than 0.100000
B(  0-C ,  1-C ) :   1.1152 B(  0-C ,  7-H ) :   0.9461 B(  0-C ,  8-H ) :   0.9501
B(  0-C ,  9-H ) :   0.9438 B(  1-C ,  2-C ) :   1.1127 B(  1-C ,  3-N ) :   1.0420
B(  1-C , 10-H ) :   0.8841 B(  2-C , 11-H ) :   0.9436 B(  2-C , 12-H ) :   0.9423
B(  2-C , 13-H ) :   0.9445 B(  3-N ,  4-C ) :   1.0406 B(  3-N , 14-H ) :   0.8728
B(  4-C ,  5-C ) :   1.1157 B(  4-C ,  6-C ) :   1.1040 B(  4-C , 15-H ) :   0.8963
B(  5-C , 16-H ) :   0.9488 B(  5-C , 17-H ) :   0.9469 B(  5-C , 18-H ) :   0.9480
B(  6-C , 19-H ) :   0.9426 B(  6-C , 20-H ) :   0.9435 B(  6-C , 21-H ) :   0.9425

Dispersion correction           -0.017286089
FINAL SINGLE POINT ENERGY      -291.674531274487

DIPOLE MOMENT
-------------

Method             : SCF
Type of density    : Electron Density
Multiplicity       :   1
Irrep              :   0
Energy             :  -291.7540096164848933 Eh
Relativity type    :
Basis              : AO
                                X                 Y                 Z
Electronic contribution:      0.096315060      -0.245061978      -0.610806666
Nuclear contribution   :     -0.172091878       0.555690701       0.740325390
                        -----------------------------------------
Total Dipole Moment    :     -0.075776818       0.310628723       0.129518725
                        -----------------------------------------
Magnitude (a.u.)       :      0.344974534
Magnitude (Debye)      :      0.876855582

Rotational constants in cm-1:             0.137377             0.048247             0.044808
Rotational constants in MHz :          4118.472667          1446.403402          1343.298216

                             ****ORCA TERMINATED NORMALLY****
TOTAL RUN TIME: 0 days 0 hours 0 minutes 9 seconds 951 msec
