                         Program Version 6.0.0  -   RELEASE  -
|  1> ! pbe def2-sv(p) def2/J RI DEFGRID1 loosescf d4 GCP(DFT/SV(P)) printgap
|  2> %output
|  3>     printlevel normal
|  4> end
|  5> * xyz 0 1
|  6> C 2.3920831165 0.6160341211 0.6126824695
|  7> C 1.1337992294 -0.1344558063 0.1734972326
|  8> C 1.2995770474 -0.601620849 -1.2728391898
|  9> N 0.0043270657 0.7817926218 0.3146007193
| 10> C -1.3677392935 0.2766668773 0.2738475134
| 11> C -1.6146641305 -1.0118865869 1.071045532
| 12> C -1.8717545155 0.1220834873 -1.1637238378
| 13> H 2.3153209623 0.9245182616 1.6534870598
| 14> H 3.2664834934 -0.0205142704 0.5082719918
| 15> H 2.5237575699 1.5012752987 -0.0035006238
| 16> H 1.0262110905 -1.0251124931 0.8201859016
| 17> H 1.2257309295 0.2501050699 -1.942342564
| 18> H 0.5417306352 -1.3291982083 -1.5447612382
| 19> H 2.2737827629 -1.0674720994 -1.3981701579
| 20> H 0.1297014288 1.2852484067 1.1854507035
| 21> H -1.9656845663 1.0735111195 0.7346335568
| 22> H -1.1253874226 -1.8607317049 0.5989663779
| 23> H -1.2410270347 -0.913015942 2.0888616982
| 24> H -2.681544325 -1.2133646225 1.1132021995
| 25> H -1.5541647833 0.9747727701 -1.7558811862
| 26> H -2.9580068883 0.0776048721 -1.1647287779
| 27> H -1.4950402488 -0.7849453104 -1.6251702679
| 28> *
| 29>
| 30>                          ****END OF INPUT****

CARTESIAN COORDINATES (ANGSTROEM)
---------------------------------
  C      2.392083    0.616034    0.612682
  C      1.133799   -0.134456    0.173497
  C      1.299577   -0.601621   -1.272839
  N      0.004327    0.781793    0.314601
  C     -1.367739    0.276667    0.273848
  C     -1.614664   -1.011887    1.071046
  C     -1.871755    0.122083   -1.163724
  H      2.315321    0.924518    1.653487
  H      3.266483   -0.020514    0.508272
  H      2.523758    1.501275   -0.003501
  H      1.026211   -1.025112    0.820186
  H      1.225731    0.250105   -1.942343
  H      0.541731   -1.329198   -1.544761
  H      2.273783   -1.067472   -1.398170
  H      0.129701    1.285248    1.185451
  H     -1.965685    1.073511    0.734634
  H     -1.125387   -1.860732    0.598966
  H     -1.241027   -0.913016    2.088862
  H     -2.681544   -1.213365    1.113202
  H     -1.554165    0.974773   -1.755881
  H     -2.958007    0.077605   -1.164729
  H     -1.495040   -0.784945   -1.625170

 Total Charge           Charge          ....    0
 Multiplicity           Mult            ....    1
 Number of Electrons    NEL             ....   58
 Basis Dimension        Dim             ....  128

ORBITAL ENERGIES
----------------

  NO   OCC          E(Eh)            E(eV)
   0   2.0000     -13.958687      -379.8352
   1   2.0000      -9.914723      -269.7933
   2   2.0000      -9.913284      -269.7542
   3   2.0000      -9.871520      -268.6177
   4   2.0000      -9.870969      -268.6027
   5   2.0000      -9.865537      -268.4549
   6   2.0000      -9.863941      -268.4115
   7   2.0000      -0.814534       -22.1646
   8   2.0000      -0.704326       -19.1657
   9   2.0000      -0.654793       -17.8178
  10   2.0000      -0.611027       -16.6269
  11   2.0000      -0.605307       -16.4712
  12   2.0000      -0.530306       -14.4304
  13   2.0000      -0.484249       -13.1771
  14   2.0000      -0.440581       -11.9888
  15   2.0000      -0.424014       -11.5380
  16   2.0000      -0.396695       -10.7946
  17   2.0000      -0.376725       -10.2512
  18   2.0000      -0.361936        -9.8488
  19   2.0000      -0.350416        -9.5353
  20   2.0000      -0.340644        -9.2694
  21   2.0000      -0.339029        -9.2255
  22   2.0000      -0.328307        -8.9337
  23   2.0000      -0.310585        -8.4514
  24   2.0000      -0.301623        -8.2076
  25   2.0000      -0.290898        -7.9157
  26   2.0000      -0.282602        -7.6900
  27   2.0000      -0.275127        -7.4866
  28   2.0000      -0.168889        -4.5957
  29   0.0000       0.025650         0.6980
  30   0.0000       0.055807         1.5186
  31   0.0000       0.062271         1.6945
  32   0.0000       0.074684         2.0323
  33   0.0000       0.088288         2.4024

MULLIKEN ATOMIC CHARGES
-----------------------
   0 C :   -0.268676
   1 C :   -0.077965
   2 C :   -0.233919
   3 N :   -0.324894
   4 C :   -0.098878
   5 C :   -0.255025
   6 C :   -0.229266
   7 H :    0.094739
   8 H :    0.099992
   9 H :    0.102705
  10 H :    0.057192
  11 H :    0.096921
  12 H :    0.104523
  13 H :    0.090818
  14 H :    0.195613
  15 H :    0.062624
  16 H :    0.105605
  17 H :    0.092779
  18 H :    0.098291
  19 H :    0.099908
  20 H :    0.092283
  21 H :    0.094632
Sum of atomic charges:    0.0000000

LOEWDIN ATOMIC CHARGES
----------------------
   0 C :   -0.336124
   1 C :   -0.101178
   2 C :   -0.339684
   3 N :   -0.252114
   4 C :   -0.103941
   5 C :   -0.349050
   6 C :   -0.340620
   7 H :    0.112661
   8 H :    0.120135
   9 H :    0.121003
  10 H :    0.091113
  11 H :    0.121685
  12 H :    0.114431
  13 H :    0.117616
  14 H :    0.206195
  15 H :    0.111465
  16 H :    0.117949
  17 H :    0.114201
  18 H :    0.121658
  19 H :    0.120958
  20 H :    0.117688
  21 H :    0.113954

  Mayer bond orders larger than 0.100000
B(  0-C ,  1-C ) :   1.1111 B(  0-C ,  7-H ) :   0.9470 B(  0-C ,  8-H ) :   0.9480
B(  0-C ,  9-H ) :   0.9472 B(  1-C ,  2-C ) :   1.1216 B(  1-C ,  3-N ) :   1.0586
B(  1-C , 10-H ) :   0.8838 B(  2-C , 11-H ) :   0.9372 B(  2-C , 12-H ) :   0.9374
B(  2-C , 13-H ) :   0.9447 B(  3-N ,  4-C ) :   1.1010 B(  3-N , 14-H ) :   0.8727
B(  4-C ,  5-C ) :   1.0873 B(  4-C ,  6-C ) :   1.1241 B(  4-C , 15-H ) :   0.9142
B(  5-C , 16-H ) :   0.9396 B(  5-C , 17-H ) :   0.9455 B(  5-C , 18-H ) :   0.9433
B(  6-C , 19-H ) :   0.9426 B(  6-C , 20-H ) :   0.9456 B(  6-C , 21-H ) :   0.9396

Dispersion correction           -0.018084644
FINAL SINGLE POINT ENERGY      -291.669611762226

DIPOLE MOMENT
-------------

Method             : SCF
Type of density    : Electron Density
Multiplicity       :   1
Irrep              :   0
Energy             :  -291.7486493915392884 Eh
Relativity type    :
Basis              : AO
                                X                 Y                 Z
Electronic contribution:     -0.301536748       1.870994156       1.035949946
Nuclear contribution   :      0.264457511      -1.991498350      -0.684542221
                        -----------------------------------------
Total Dipole Moment    :     -0.037079236      -0.120504194       0.351407725
                        -----------------------------------------
Magnitude (a.u.)       :      0.373341023
Magnitude (Debye)      :      0.948957467

Rotational constants in cm-1:             0.130478             0.054984             0.048802
Rotational constants in MHz :          3911.629194          1648.381216          1463.054178

                             ****ORCA TERMINATED NORMALLY****
TOTAL RUN TIME: 0 days 0 hours 0 minutes 10 seconds 262 msec
