                         Program Version 6.0.0  -   RELEASE  -
|  1> ! pbe def2-sv(p) def2/J RI DEFGRID1 loosescf d4 GCP(DFT/SV(P)) printgap
|  2> %output
|  3>     printlevel normal
|  4> end
|  5> * xyz 0 1
|  6> C -3.2566984432 -1.1744223754 0.3179242839
|  7> C -1.7575728387 -0.8990283658 0.3113544285
|  8> C -1.4625275934 0.5086737016 -0.1981698334
|  9> C -0.0012350139 0.872243004 -0.2332158014
| 10> O 0.4106045446 1.9696330741 -0.5614375187
| 11> O 0.7956775735 -0.1211375263 0.1225025682
| 12> C 2.2143590132 0.1117127596 0.1138968445
| 13> C 2.9179232015 -1.2319161622 0.1244035187
| 14> H -3.453916766 -2.1782684063 0.6835956354
| 15> H -3.7727271926 -0.4661930962 0.9615573752
| 16> H -3.6657080767 -1.0871685602 -0.6856416333
| 17> H -1.2522437054 -1.6269214559 -0.3242523795
| 18> H -1.358621849 -1.0085844886 1.320602544
| 19> H -1.9630852115 1.2570159439 0.4210135081
| 20> H -1.8456013427 0.637051393 -1.213758459
| 21> H 2.4650338668 0.6998920021 -0.7750182058
| 22> H 2.4666001845 0.7039460232 0.9993759959
| 23> H 2.6533851365 -1.8003838787 -0.7623624375
| 24> H 3.9912152288 -1.074128791 0.1407489429
| 25> H 2.6242829224 -1.797134051 1.00373573
| 26> *
| 27>
| 28>                          ****END OF INPUT****

CARTESIAN COORDINATES (ANGSTROEM)
---------------------------------
  C     -3.256698   -1.174422    0.317924
  C     -1.757573   -0.899028    0.311354
  C     -1.462528    0.508674   -0.198170
  C     -0.001235    0.872243   -0.233216
  O      0.410605    1.969633   -0.561438
  O      0.795678   -0.121138    0.122503
  C      2.214359    0.111713    0.113897
  C      2.917923   -1.231916    0.124404
  H     -3.453917   -2.178268    0.683596
  H     -3.772727   -0.466193    0.961557
  H     -3.665708   -1.087169   -0.685642
  H     -1.252244   -1.626921   -0.324252
  H     -1.358622   -1.008584    1.320603
  H     -1.963085    1.257016    0.421014
  H     -1.845601    0.637051   -1.213758
  H      2.465034    0.699892   -0.775018
  H      2.466600    0.703946    0.999376
  H      2.653385   -1.800384   -0.762362
  H      3.991215   -1.074129    0.140749
  H      2.624283   -1.797134    1.003736

 Total Charge           Charge          ....    0
 Multiplicity           Mult            ....    1
 Number of Electrons    NEL             ....   64
 Basis Dimension        Dim             ....  136

ORBITAL ENERGIES
----------------

  NO   OCC          E(Eh)            E(eV)
   0   2.0000     -18.797803      -511.5142
   1   2.0000     -18.726939      -509.5859
   2   2.0000     -10.000598      -272.1301
   3   2.0000      -9.945831      -270.6398
   4   2.0000      -9.895875      -269.2805
   5   2.0000      -9.889013      -269.0937
   6   2.0000      -9.888480      -269.0792
   7   2.0000      -9.877470      -268.7796
   8   2.0000      -1.004112       -27.3233
   9   2.0000      -0.903079       -24.5740
  10   2.0000      -0.728922       -19.8350
  11   2.0000      -0.697847       -18.9894
  12   2.0000      -0.638079       -17.3630
  13   2.0000      -0.579842       -15.7783
  14   2.0000      -0.534507       -14.5447
  15   2.0000      -0.507597       -13.8124
  16   2.0000      -0.451155       -12.2765
  17   2.0000      -0.438741       -11.9387
  18   2.0000      -0.422947       -11.5090
  19   2.0000      -0.399985       -10.8841
  20   2.0000      -0.378995       -10.3130
  21   2.0000      -0.369827       -10.0635
  22   2.0000      -0.358727        -9.7615
  23   2.0000      -0.349858        -9.5201
  24   2.0000      -0.340898        -9.2763
  25   2.0000      -0.321799        -8.7566
  26   2.0000      -0.312361        -8.4998
  27   2.0000      -0.306734        -8.3467
  28   2.0000      -0.294446        -8.0123
  29   2.0000      -0.290922        -7.9164
  30   2.0000      -0.252958        -6.8833
  31   2.0000      -0.210875        -5.7382
  32   0.0000      -0.015921        -0.4332
  33   0.0000       0.032083         0.8730
  34   0.0000       0.048266         1.3134
  35   0.0000       0.074908         2.0384
  36   0.0000       0.077914         2.1201

MULLIKEN ATOMIC CHARGES
-----------------------
   0 C :   -0.256675
   1 C :   -0.183742
   2 C :   -0.199739
   3 C :    0.135968
   4 O :   -0.219040
   5 O :   -0.237713
   6 C :   -0.028708
   7 C :   -0.275642
   8 H :    0.104029
   9 H :    0.097254
  10 H :    0.096901
  11 H :    0.092063
  12 H :    0.091582
  13 H :    0.114009
  14 H :    0.114701
  15 H :    0.110857
  16 H :    0.103820
  17 H :    0.114326
  18 H :    0.111370
  19 H :    0.114379
Sum of atomic charges:    0.0000000

LOEWDIN ATOMIC CHARGES
----------------------
   0 C :   -0.339787
   1 C :   -0.237074
   2 C :   -0.248287
   3 C :    0.033582
   4 O :   -0.178297
   5 O :   -0.061722
   6 C :   -0.108747
   7 C :   -0.350945
   8 H :    0.120070
   9 H :    0.117128
  10 H :    0.117094
  11 H :    0.118090
  12 H :    0.117907
  13 H :    0.141457
  14 H :    0.142493
  15 H :    0.118324
  16 H :    0.116138
  17 H :    0.126114
  18 H :    0.130303
  19 H :    0.126159

  Mayer bond orders larger than 0.100000
B(  0-C ,  1-C ) :   1.1506 B(  0-C ,  8-H ) :   0.9536 B(  0-C ,  9-H ) :   0.9537
B(  0-C , 10-H ) :   0.9538 B(  1-C ,  2-C ) :   1.1305 B(  1-C , 11-H ) :   0.9250
B(  1-C , 12-H ) :   0.9278 B(  2-C ,  3-C ) :   1.0346 B(  2-C , 13-H ) :   0.9016
B(  2-C , 14-H ) :   0.8962 B(  3-C ,  4-O ) :   2.0467 B(  3-C ,  5-O ) :   1.2252
B(  5-O ,  6-C ) :   0.9079 B(  6-C ,  7-C ) :   1.1526 B(  6-C , 15-H ) :   0.9230
B(  6-C , 16-H ) :   0.9360 B(  7-C , 17-H ) :   0.9518 B(  7-C , 18-H ) :   0.9445
B(  7-C , 19-H ) :   0.9487

Dispersion correction           -0.014448283
FINAL SINGLE POINT ENERGY      -385.456199221424

DIPOLE MOMENT
-------------

Method             : SCF
Type of density    : Electron Density
Multiplicity       :   1
Irrep              :   0
Energy             :  -385.5314801739583004 Eh
Relativity type    :
Basis              : AO
                                X                 Y                 Z
Electronic contribution:      3.025785750       6.448390557      -1.422233598
Nuclear contribution   :     -2.901112535      -7.234823564       1.653668015
                        -----------------------------------------
Total Dipole Moment    :      0.124673216      -0.786433007       0.231434417
                        -----------------------------------------
Magnitude (a.u.)       :      0.829205749
Magnitude (Debye)      :      2.107673515

Rotational constants in cm-1:             0.109306             0.035906             0.027830
Rotational constants in MHz :          3276.900148          1076.425132           834.309757

                             ****ORCA TERMINATED NORMALLY****
TOTAL RUN TIME: 0 days 0 hours 0 minutes 11 seconds 500 msec
