                         Program Version 6.0.0  -   RELEASE  -
|  1> ! r2scan-3c def2/J RI DEFGRID2 scfconv6 printgap
|  2> %output
|  3>     printlevel normal
|  4> end
|  5> * xyz 0 1
|  6> C -0.0003294203 1.3105029307 0.000690882
|  7> C -0.9330406498 0.4728026063 -0.8564613162
|  8> Cl -2.0864233121 -0.461295533 0.163340204
|  9> C 0.9324837111 0.471524234 0.8565907704
| 10> Cl 2.086776506 -0.4608202767 -0.1636982721
| 11> H 0.5843659958 1.9473014676 -0.6645950431
| 12> H -0.5852485142 1.9459557268 0.667065356
| 13> H -1.5415310006 1.0982449175 -1.5055051213
| 14> H -0.3809066571 -0.2598042965 -1.4427903903
| 15> H 0.3809284236 -0.2621639779 1.4418968207
| 16> H 1.5405305928 1.0958224227 1.5067477154
| 17> *
| 18>
| 19>                          ****END OF INPUT****

CARTESIAN COORDINATES (ANGSTROEM)
---------------------------------
  C     -0.000329    1.310503    0.000691
  C     -0.933041    0.472803   -0.856461
  Cl    -2.086423   -0.461296    0.163340
  C      0.932484    0.471524    0.856591
  Cl     2.086777   -0.460820   -0.163698
  H      0.584366    1.947301   -0.664595
  H     -0.585249    1.945956    0.667065
  H     -1.541531    1.098245   -1.505505
  H     -0.380907   -0.259804   -1.442790
  H      0.380928   -0.262164    1.441897
  H      1.540531    1.095822    1.506748

 Total Charge           Charge          ....    0
 Multiplicity           Mult            ....    1
 Number of Electrons    NEL             ....   58
 Basis Dimension        Dim             ....  141

ORBITAL ENERGIES
----------------

  NO   OCC          E(Eh)            E(eV)
   0   2.0000    -101.207277     -2753.9900
   1   2.0000    -101.207269     -2753.9898
   2   2.0000     -10.101235      -274.8686
   3   2.0000     -10.101185      -274.8672
   4   2.0000     -10.063556      -273.8433
   5   2.0000      -9.363206      -254.7858
   6   2.0000      -9.363198      -254.7856
   7   2.0000      -7.109395      -193.4565
   8   2.0000      -7.109387      -193.4562
   9   2.0000      -7.099339      -193.1828
  10   2.0000      -7.099332      -193.1826
  11   2.0000      -7.099201      -193.1791
  12   2.0000      -7.099192      -193.1788
  13   2.0000      -0.844524       -22.9807
  14   2.0000      -0.812614       -22.1124
  15   2.0000      -0.731447       -19.9037
  16   2.0000      -0.646592       -17.5947
  17   2.0000      -0.568412       -15.4673
  18   2.0000      -0.467866       -12.7313
  19   2.0000      -0.462767       -12.5925
  20   2.0000      -0.420137       -11.4325
  21   2.0000      -0.396420       -10.7871
  22   2.0000      -0.375117       -10.2074
  23   2.0000      -0.362426        -9.8621
  24   2.0000      -0.344118        -9.3639
  25   2.0000      -0.280812        -7.6413
  26   2.0000      -0.276784        -7.5317
  27   2.0000      -0.270394        -7.3578
  28   2.0000      -0.267564        -7.2808
  29   0.0000      -0.002756        -0.0750
  30   0.0000       0.003414         0.0929
  31   0.0000       0.080378         2.1872
  32   0.0000       0.111964         3.0467
  33   0.0000       0.113418         3.0863

MULLIKEN ATOMIC CHARGES
-----------------------
   0 C :   -0.256273
   1 C :   -0.171280
   2 Cl:   -0.204715
   3 C :   -0.171357
   4 Cl:   -0.204743
   5 H :    0.159331
   6 H :    0.159335
   7 H :    0.168493
   8 H :    0.176354
   9 H :    0.176375
  10 H :    0.168480
Sum of atomic charges:    0.0000000

LOEWDIN ATOMIC CHARGES
----------------------
   0 C :   -0.344732
   1 C :   -0.323654
   2 Cl:   -0.001548
   3 C :   -0.323698
   4 Cl:   -0.001576
   5 H :    0.170822
   6 H :    0.170828
   7 H :    0.159910
   8 H :    0.166903
   9 H :    0.166881
  10 H :    0.159864

  Mayer bond orders larger than 0.100000
B(  0-C ,  1-C ) :   0.9350 B(  0-C ,  3-C ) :   0.9351 B(  0-C ,  5-H ) :   0.9486
B(  0-C ,  6-H ) :   0.9486 B(  1-C ,  2-Cl) :   0.9649 B(  1-C ,  7-H ) :   0.9552
B(  1-C ,  8-H ) :   0.9543 B(  3-C ,  4-Cl) :   0.9649 B(  3-C ,  9-H ) :   0.9544
B(  3-C , 10-H ) :   0.9552

Dispersion correction           -0.002962336
FINAL SINGLE POINT ENERGY     -1038.250615685542

DIPOLE MOMENT
-------------

Method             : SCF
Type of density    : Electron Density
Multiplicity       :   1
Irrep              :   0
Energy             : -1038.2576608777726506 Eh
Relativity type    :
Basis              : AO
                                X                 Y                 Z
Electronic contribution:      0.001827705      -5.565440033      -0.002632035
Nuclear contribution   :     -0.002220147       6.458934085       0.003125628
                        -----------------------------------------
Total Dipole Moment    :     -0.000392443       0.893494053       0.000493594
                        -----------------------------------------
Magnitude (a.u.)       :      0.893494275
Magnitude (Debye)      :      2.271081962

Rotational constants in cm-1:             0.209570             0.046240             0.043600
Rotational constants in MHz :          6282.744923          1386.243600          1307.084440

                             ****ORCA TERMINATED NORMALLY****
TOTAL RUN TIME: 0 days 0 hours 0 minutes 14 seconds 399 msec
