                         Program Version 6.0.0  -   RELEASE  -
|  1> ! r2scan-3c def2/J RI DEFGRID2 scfconv6 printgap
|  2> %output
|  3>     printlevel normal
|  4> end
|  5> %cpcm
|  6>     smd true
|  7>     smdsolvent "water"
|  8> end
|  9> * xyz 0 1
| 10> C -0.0003294203 1.3105029307 0.000690882
| 11> C -0.9330406498 0.4728026063 -0.8564613162
| 12> Cl -2.0864233121 -0.461295533 0.163340204
| 13> C 0.9324837111 0.471524234 0.8565907704
| 14> Cl 2.086776506 -0.4608202767 -0.1636982721
| 15> H 0.5843659958 1.9473014676 -0.6645950431
| 16> H -0.5852485142 1.9459557268 0.667065356
| 17> H -1.5415310006 1.0982449175 -1.5055051213
| 18> H -0.3809066571 -0.2598042965 -1.4427903903
| 19> H 0.3809284236 -0.2621639779 1.4418968207
| 20> H 1.5405305928 1.0958224227 1.5067477154
| 21> *
| 22>
| 23>                          ****END OF INPUT****

CARTESIAN COORDINATES (ANGSTROEM)
---------------------------------
  C     -0.000329    1.310503    0.000691
  C     -0.933041    0.472803   -0.856461
  Cl    -2.086423   -0.461296    0.163340
  C      0.932484    0.471524    0.856591
  Cl     2.086777   -0.460820   -0.163698
  H      0.584366    1.947301   -0.664595
  H     -0.585249    1.945956    0.667065
  H     -1.541531    1.098245   -1.505505
  H     -0.380907   -0.259804   -1.442790
  H      0.380928   -0.262164    1.441897
  H      1.540531    1.095822    1.506748

 Total Charge           Charge          ....    0
 Multiplicity           Mult            ....    1
 Number of Electrons    NEL             ....   58
 Basis Dimension        Dim             ....  141

ORBITAL ENERGIES
----------------

  NO   OCC          E(Eh)            E(eV)
   0   2.0000    -101.202479     -2753.8595
   1   2.0000    -101.202478     -2753.8594
   2   2.0000     -10.086231      -274.4603
   3   2.0000     -10.086189      -274.4592
   4   2.0000     -10.043674      -273.3023
   5   2.0000      -9.358810      -254.6662
   6   2.0000      -9.358809      -254.6661
   7   2.0000      -7.104627      -193.3267
   8   2.0000      -7.104626      -193.3267
   9   2.0000      -7.095059      -193.0664
  10   2.0000      -7.095059      -193.0664
  11   2.0000      -7.094982      -193.0643
  12   2.0000      -7.094981      -193.0642
  13   2.0000      -0.834227       -22.7005
  14   2.0000      -0.806270       -21.9397
  15   2.0000      -0.719017       -19.5655
  16   2.0000      -0.632701       -17.2167
  17   2.0000      -0.552310       -15.0291
  18   2.0000      -0.451089       -12.2747
  19   2.0000      -0.447081       -12.1657
  20   2.0000      -0.407056       -11.0765
  21   2.0000      -0.386311       -10.5121
  22   2.0000      -0.360070        -9.7980
  23   2.0000      -0.348500        -9.4832
  24   2.0000      -0.328463        -8.9379
  25   2.0000      -0.276718        -7.5299
  26   2.0000      -0.272970        -7.4279
  27   2.0000      -0.265294        -7.2190
  28   2.0000      -0.262817        -7.1516
  29   0.0000       0.006443         0.1753
  30   0.0000       0.012709         0.3458
  31   0.0000       0.097171         2.6442
  32   0.0000       0.128659         3.5010
  33   0.0000       0.132853         3.6151

MULLIKEN ATOMIC CHARGES
-----------------------
   0 C :   -0.269228
   1 C :   -0.182930
   2 Cl:   -0.248752
   3 C :   -0.182983
   4 Cl:   -0.248773
   5 H :    0.183349
   6 H :    0.183346
   7 H :    0.198792
   8 H :    0.184214
   9 H :    0.184219
  10 H :    0.198748
Sum of atomic charges:    0.0000000

LOEWDIN ATOMIC CHARGES
----------------------
   0 C :   -0.339599
   1 C :   -0.318439
   2 Cl:   -0.031535
   3 C :   -0.318479
   4 Cl:   -0.031560
   5 H :    0.179848
   6 H :    0.179850
   7 H :    0.171388
   8 H :    0.168613
   9 H :    0.168586
  10 H :    0.171327

  Mayer bond orders larger than 0.100000
B(  0-C ,  1-C ) :   0.9245 B(  0-C ,  3-C ) :   0.9246 B(  0-C ,  5-H ) :   0.9455
B(  0-C ,  6-H ) :   0.9456 B(  1-C ,  2-Cl) :   0.9357 B(  1-C ,  7-H ) :   0.9477
B(  1-C ,  8-H ) :   0.9534 B(  3-C ,  4-Cl) :   0.9357 B(  3-C ,  9-H ) :   0.9534
B(  3-C , 10-H ) :   0.9477

Dispersion correction           -0.002962336
FINAL SINGLE POINT ENERGY     -1038.255417482349

DIPOLE MOMENT
-------------

Method             : SCF
Type of density    : Electron Density
Multiplicity       :   1
Irrep              :   0
Energy             : -1038.2624626745800924 Eh
Relativity type    :
Basis              : AO
                                X                 Y                 Z
Electronic contribution:      0.001717462      -5.224042786      -0.002482648
Nuclear contribution   :     -0.002220147       6.458934085       0.003125628
                        -----------------------------------------
Total Dipole Moment    :     -0.000502685       1.234891300       0.000642980
                        -----------------------------------------
Magnitude (a.u.)       :      1.234891569
Magnitude (Debye)      :      3.138844921

Rotational constants in cm-1:             0.209570             0.046240             0.043600
Rotational constants in MHz :          6282.744923          1386.243600          1307.084440

                             ****ORCA TERMINATED NORMALLY****
TOTAL RUN TIME: 0 days 0 hours 0 minutes 19 seconds 512 msec
