                         Program Version 6.0.0  -   RELEASE  -
|  1> ! r2scan-3c def2/J RI DEFGRID2 scfconv6 printgap
|  2> %output
|  3>     printlevel normal
|  4> end
|  5> * xyz 0 1
|  6> C -2.5190021486 -1.2740729658 0.4760655125
|  7> C -2.5499570248 0.1165845971 -0.1465373228
|  8> C -1.2701063877 0.4134643595 -0.9285941631
|  9> C -0.076310298 0.5697173413 -0.0206197589
| 10> O -0.1011580854 1.0646001745 1.0872199829
| 11> O 1.0265827749 0.1124960322 -0.5992602594
| 12> C 2.2796267919 0.1967254995 0.1019474683
| 13> C 3.0271718337 -1.1155280326 -0.0584617823
| 14> H -3.4437207617 -1.4696783083 1.0121864885
| 15> H -2.3953874318 -2.0348754722 -0.291048921
| 16> H -1.6928347533 -1.3533658052 1.1799286312
| 17> H -2.6593847444 0.8651488674 0.6402659087
| 18> H -3.4030511961 0.1972495668 -0.8205663657
| 19> H -1.3777314362 1.3585269229 -1.46596543
| 20> H -1.0528577018 -0.370780004 -1.6533149117
| 21> H 2.8397961628 1.0246714227 -0.341757991
| 22> H 2.0747966449 0.4231394055 1.1530061172
| 23> H 2.4657875097 -1.9285142697 0.3937795283
| 24> H 3.1706743259 -1.3323215721 -1.1129125478
| 25> H 3.9944822645 -1.0379947169 0.4270225268
| 26> *
| 27>
| 28>                          ****END OF INPUT****

CARTESIAN COORDINATES (ANGSTROEM)
---------------------------------
  C     -2.519002   -1.274073    0.476066
  C     -2.549957    0.116585   -0.146537
  C     -1.270106    0.413464   -0.928594
  C     -0.076310    0.569717   -0.020620
  O     -0.101158    1.064600    1.087220
  O      1.026583    0.112496   -0.599260
  C      2.279627    0.196725    0.101947
  C      3.027172   -1.115528   -0.058462
  H     -3.443721   -1.469678    1.012186
  H     -2.395387   -2.034875   -0.291049
  H     -1.692835   -1.353366    1.179929
  H     -2.659385    0.865149    0.640266
  H     -3.403051    0.197250   -0.820566
  H     -1.377731    1.358527   -1.465965
  H     -1.052858   -0.370780   -1.653315
  H      2.839796    1.024671   -0.341758
  H      2.074797    0.423139    1.153006
  H      2.465788   -1.928514    0.393780
  H      3.170674   -1.332322   -1.112913
  H      3.994482   -1.037995    0.427023

 Total Charge           Charge          ....    0
 Multiplicity           Mult            ....    1
 Number of Electrons    NEL             ....   64
 Basis Dimension        Dim             ....  222

ORBITAL ENERGIES
----------------

  NO   OCC          E(Eh)            E(eV)
   0   2.0000     -18.996295      -516.9155
   1   2.0000     -18.927514      -515.0438
   2   2.0000     -10.152049      -276.2513
   3   2.0000     -10.089824      -274.5581
   4   2.0000     -10.040829      -273.2248
   5   2.0000     -10.031747      -272.9777
   6   2.0000     -10.030274      -272.9376
   7   2.0000     -10.016527      -272.5635
   8   2.0000      -1.070492       -29.1296
   9   2.0000      -0.975400       -26.5420
  10   2.0000      -0.771605       -20.9964
  11   2.0000      -0.742140       -20.1947
  12   2.0000      -0.677363       -18.4320
  13   2.0000      -0.619503       -16.8575
  14   2.0000      -0.563699       -15.3390
  15   2.0000      -0.525299       -14.2941
  16   2.0000      -0.471339       -12.8258
  17   2.0000      -0.460954       -12.5432
  18   2.0000      -0.439968       -11.9721
  19   2.0000      -0.422671       -11.5015
  20   2.0000      -0.404481       -11.0065
  21   2.0000      -0.386657       -10.5215
  22   2.0000      -0.375371       -10.2144
  23   2.0000      -0.368665       -10.0319
  24   2.0000      -0.353834        -9.6283
  25   2.0000      -0.341138        -9.2828
  26   2.0000      -0.315187        -8.5767
  27   2.0000      -0.309343        -8.4176
  28   2.0000      -0.306629        -8.3438
  29   2.0000      -0.303801        -8.2668
  30   2.0000      -0.270243        -7.3537
  31   2.0000      -0.236736        -6.4419
  32   0.0000      -0.013440        -0.3657
  33   0.0000       0.076055         2.0696
  34   0.0000       0.092301         2.5116
  35   0.0000       0.106283         2.8921
  36   0.0000       0.125096         3.4040

MULLIKEN ATOMIC CHARGES
-----------------------
   0 C :   -0.501354
   1 C :   -0.199268
   2 C :   -0.300328
   3 C :    0.348955
   4 O :   -0.435528
   5 O :   -0.165001
   6 C :   -0.164582
   7 C :   -0.443127
   8 H :    0.147555
   9 H :    0.141792
  10 H :    0.160351
  11 H :    0.157679
  12 H :    0.141191
  13 H :    0.168220
  14 H :    0.164452
  15 H :    0.142229
  16 H :    0.185156
  17 H :    0.151680
  18 H :    0.153261
  19 H :    0.146667
Sum of atomic charges:   -0.0000000

LOEWDIN ATOMIC CHARGES
----------------------
   0 C :   -0.417512
   1 C :   -0.297816
   2 C :   -0.232686
   3 C :    0.360514
   4 O :   -0.446388
   5 O :   -0.597073
   6 C :    0.030671
   7 C :   -0.387172
   8 H :    0.152750
   9 H :    0.148716
  10 H :    0.157594
  11 H :    0.169571
  12 H :    0.152339
  13 H :    0.183391
  14 H :    0.178703
  15 H :    0.174501
  16 H :    0.194360
  17 H :    0.158201
  18 H :    0.158279
  19 H :    0.159057

  Mayer bond orders larger than 0.100000
B(  0-C ,  1-C ) :   0.9082 B(  0-C ,  8-H ) :   0.9691 B(  0-C ,  9-H ) :   0.9825
B(  0-C , 10-H ) :   0.9760 B(  1-C ,  2-C ) :   0.9019 B(  1-C , 11-H ) :   0.9614
B(  1-C , 12-H ) :   0.9641 B(  2-C ,  3-C ) :   0.9605 B(  2-C , 13-H ) :   0.9257
B(  2-C , 14-H ) :   0.9932 B(  3-C ,  4-O ) :   1.8412 B(  3-C ,  5-O ) :   1.0720
B(  5-O ,  6-C ) :   0.7788 B(  6-C ,  7-C ) :   0.9495 B(  6-C , 15-H ) :   0.9495
B(  6-C , 16-H ) :   0.9669 B(  7-C , 17-H ) :   0.9727 B(  7-C , 18-H ) :   0.9708
B(  7-C , 19-H ) :   0.9675

Dispersion correction           -0.005006347
FINAL SINGLE POINT ENERGY      -386.235709503347

DIPOLE MOMENT
-------------

Method             : SCF
Type of density    : Electron Density
Multiplicity       :   1
Irrep              :   0
Energy             :  -386.2425133686708136 Eh
Relativity type    :
Basis              : AO
                                X                 Y                 Z
Electronic contribution:      1.698222154       4.915839970       0.224826784
Nuclear contribution   :     -1.374230656      -5.291437873      -0.817766637
                        -----------------------------------------
Total Dipole Moment    :      0.323991498      -0.375597903      -0.592939853
                        -----------------------------------------
Magnitude (a.u.)       :      0.773060117
Magnitude (Debye)      :      1.964962659

Rotational constants in cm-1:             0.132038             0.033704             0.031857
Rotational constants in MHz :          3958.406024          1010.421920           955.062840

                             ****ORCA TERMINATED NORMALLY****
TOTAL RUN TIME: 0 days 0 hours 0 minutes 33 seconds 186 msec
