                         Program Version 6.0.0  -   RELEASE  -
|  1> ! r2scan-3c def2/J RI DEFGRID2 scfconv6 printgap
|  2> %output
|  3>     printlevel normal
|  4> end
|  5> %cpcm
|  6>     smd true
|  7>     smdsolvent "water"
|  8> end
|  9> * xyz 0 1
| 10> C -2.5190021486 -1.2740729658 0.4760655125
| 11> C -2.5499570248 0.1165845971 -0.1465373228
| 12> C -1.2701063877 0.4134643595 -0.9285941631
| 13> C -0.076310298 0.5697173413 -0.0206197589
| 14> O -0.1011580854 1.0646001745 1.0872199829
| 15> O 1.0265827749 0.1124960322 -0.5992602594
| 16> C 2.2796267919 0.1967254995 0.1019474683
| 17> C 3.0271718337 -1.1155280326 -0.0584617823
| 18> H -3.4437207617 -1.4696783083 1.0121864885
| 19> H -2.3953874318 -2.0348754722 -0.291048921
| 20> H -1.6928347533 -1.3533658052 1.1799286312
| 21> H -2.6593847444 0.8651488674 0.6402659087
| 22> H -3.4030511961 0.1972495668 -0.8205663657
| 23> H -1.3777314362 1.3585269229 -1.46596543
| 24> H -1.0528577018 -0.370780004 -1.6533149117
| 25> H 2.8397961628 1.0246714227 -0.341757991
| 26> H 2.0747966449 0.4231394055 1.1530061172
| 27> H 2.4657875097 -1.9285142697 0.3937795283
| 28> H 3.1706743259 -1.3323215721 -1.1129125478
| 29> H 3.9944822645 -1.0379947169 0.4270225268
| 30> *
| 31>
| 32>                          ****END OF INPUT****

CARTESIAN COORDINATES (ANGSTROEM)
---------------------------------
  C     -2.519002   -1.274073    0.476066
  C     -2.549957    0.116585   -0.146537
  C     -1.270106    0.413464   -0.928594
  C     -0.076310    0.569717   -0.020620
  O     -0.101158    1.064600    1.087220
  O      1.026583    0.112496   -0.599260
  C      2.279627    0.196725    0.101947
  C      3.027172   -1.115528   -0.058462
  H     -3.443721   -1.469678    1.012186
  H     -2.395387   -2.034875   -0.291049
  H     -1.692835   -1.353366    1.179929
  H     -2.659385    0.865149    0.640266
  H     -3.403051    0.197250   -0.820566
  H     -1.377731    1.358527   -1.465965
  H     -1.052858   -0.370780   -1.653315
  H      2.839796    1.024671   -0.341758
  H      2.074797    0.423139    1.153006
  H      2.465788   -1.928514    0.393780
  H      3.170674   -1.332322   -1.112913
  H      3.994482   -1.037995    0.427023

 Total Charge           Charge          ....    0
 Multiplicity           Mult            ....    1
 Number of Electrons    NEL             ....   64
 Basis Dimension        Dim             ....  222

ORBITAL ENERGIES
----------------

  NO   OCC          E(Eh)            E(eV)
   0   2.0000     -19.001825      -517.0660
   1   2.0000     -18.942791      -515.4595
   2   2.0000     -10.162449      -276.5343
   3   2.0000     -10.082051      -274.3465
   4   2.0000     -10.035210      -273.0720
   5   2.0000     -10.025583      -272.8100
   6   2.0000     -10.018434      -272.6155
   7   2.0000     -10.010498      -272.3995
   8   2.0000      -1.077660       -29.3246
   9   2.0000      -0.988574       -26.9005
  10   2.0000      -0.767902       -20.8957
  11   2.0000      -0.734971       -19.9996
  12   2.0000      -0.672146       -18.2900
  13   2.0000      -0.613415       -16.6919
  14   2.0000      -0.558091       -15.1864
  15   2.0000      -0.524360       -14.2686
  16   2.0000      -0.472984       -12.8705
  17   2.0000      -0.460881       -12.5412
  18   2.0000      -0.446574       -12.1519
  19   2.0000      -0.422344       -11.4926
  20   2.0000      -0.400750       -10.9050
  21   2.0000      -0.382990       -10.4217
  22   2.0000      -0.366786        -9.9808
  23   2.0000      -0.361601        -9.8397
  24   2.0000      -0.352939        -9.6040
  25   2.0000      -0.336260        -9.1501
  26   2.0000      -0.310173        -8.4402
  27   2.0000      -0.305667        -8.3176
  28   2.0000      -0.302770        -8.2388
  29   2.0000      -0.301893        -8.2149
  30   2.0000      -0.276181        -7.5153
  31   2.0000      -0.252214        -6.8631
  32   0.0000      -0.021103        -0.5742
  33   0.0000       0.078320         2.1312
  34   0.0000       0.099504         2.7076
  35   0.0000       0.117302         3.1920
  36   0.0000       0.132147         3.5959

MULLIKEN ATOMIC CHARGES
-----------------------
   0 C :   -0.529206
   1 C :   -0.219162
   2 C :   -0.310232
   3 C :    0.385419
   4 O :   -0.518163
   5 O :   -0.185593
   6 C :   -0.153943
   7 C :   -0.485865
   8 H :    0.160054
   9 H :    0.158701
  10 H :    0.160553
  11 H :    0.149934
  12 H :    0.160548
  13 H :    0.200293
  14 H :    0.180986
  15 H :    0.168741
  16 H :    0.179720
  17 H :    0.163972
  18 H :    0.165072
  19 H :    0.168172
Sum of atomic charges:    0.0000000

LOEWDIN ATOMIC CHARGES
----------------------
   0 C :   -0.424207
   1 C :   -0.298100
   2 C :   -0.229461
   3 C :    0.370685
   4 O :   -0.505736
   5 O :   -0.599661
   6 C :    0.035648
   7 C :   -0.390619
   8 H :    0.155528
   9 H :    0.154962
  10 H :    0.156102
  11 H :    0.164393
  12 H :    0.159929
  13 H :    0.195164
  14 H :    0.186768
  15 H :    0.184897
  16 H :    0.193396
  17 H :    0.161071
  18 H :    0.161676
  19 H :    0.167567

  Mayer bond orders larger than 0.100000
B(  0-C ,  1-C ) :   0.9085 B(  0-C ,  8-H ) :   0.9672 B(  0-C ,  9-H ) :   0.9778
B(  0-C , 10-H ) :   0.9739 B(  1-C ,  2-C ) :   0.8850 B(  1-C , 11-H ) :   0.9685
B(  1-C , 12-H ) :   0.9597 B(  2-C ,  3-C ) :   0.9635 B(  2-C , 13-H ) :   0.9172
B(  2-C , 14-H ) :   0.9818 B(  3-C ,  4-O ) :   1.7766 B(  3-C ,  5-O ) :   1.0962
B(  5-O ,  6-C ) :   0.7685 B(  6-C ,  7-C ) :   0.9442 B(  6-C , 15-H ) :   0.9412
B(  6-C , 16-H ) :   0.9624 B(  7-C , 17-H ) :   0.9704 B(  7-C , 18-H ) :   0.9682
B(  7-C , 19-H ) :   0.9614

Dispersion correction           -0.005006347
FINAL SINGLE POINT ENERGY      -386.240343614347

DIPOLE MOMENT
-------------

Method             : SCF
Type of density    : Electron Density
Multiplicity       :   1
Irrep              :   0
Energy             :  -386.2471474796712982 Eh
Relativity type    :
Basis              : AO
                                X                 Y                 Z
Electronic contribution:      1.799440274       4.772693049      -0.099433146
Nuclear contribution   :     -1.374230656      -5.291437873      -0.817766637
                        -----------------------------------------
Total Dipole Moment    :      0.425209618      -0.518744824      -0.917199783
                        -----------------------------------------
Magnitude (a.u.)       :      1.136289952
Magnitude (Debye)      :      2.888219526

Rotational constants in cm-1:             0.132038             0.033704             0.031857
Rotational constants in MHz :          3958.406024          1010.421920           955.062840

                             ****ORCA TERMINATED NORMALLY****
TOTAL RUN TIME: 0 days 0 hours 0 minutes 39 seconds 428 msec
