                         Program Version 6.0.0  -   RELEASE  -
|  1> ! pbe def2-sv(p) def2/J RI DEFGRID1 loosescf d4 GCP(DFT/SV(P)) printgap
|  2> %output
|  3>     printlevel normal
|  4> end
|  5> * xyz 0 1
|  6> C -1.7309472002 -1.3496985727 0.3549301734
|  7> C -2.3772312897 -0.0190446933 -0.0104835626
|  8> C -1.4349440887 0.9299478179 -0.750580561
|  9> C -0.2745453917 1.430766549 0.1161945911
| 10> C 0.8119813009 0.4131790613 0.3413813368
| 11> O 1.3454238414 0.2003566379 1.4129226115
| 12> O 1.1729328511 -0.2021473038 -0.7784279833
| 13> C 2.2175086792 -1.1717287418 -0.6914276871
| 14> H -0.9199950471 -1.2071217359 1.0665839913
| 15> H -2.4623881012 -2.012495144 0.8111211817
| 16> H -1.3316726318 -1.8356120745 -0.5328328752
| 17> H -3.2407136072 -0.2117311651 -0.6503207395
| 18> H -2.7390070998 0.4675233673 0.897808161
| 19> H -2.0078217394 1.7981278232 -1.0792315996
| 20> H -1.0317894453 0.434248145 -1.6342804661
| 21> H -0.6300327156 1.7647709234 1.0915770513
| 22> H 0.2022100105 2.276160129 -0.3851616309
| 23> H 2.4414350546 -1.4553554559 -1.7149312422
| 24> H 1.8786124263 -2.0327029941 -0.1134865771
| 25> H 3.0910981821 -0.739036445 -0.2021920152
| 26> *
| 27>
| 28>                          ****END OF INPUT****

CARTESIAN COORDINATES (ANGSTROEM)
---------------------------------
  C     -1.730947   -1.349699    0.354930
  C     -2.377231   -0.019045   -0.010484
  C     -1.434944    0.929948   -0.750581
  C     -0.274545    1.430767    0.116195
  C      0.811981    0.413179    0.341381
  O      1.345424    0.200357    1.412923
  O      1.172933   -0.202147   -0.778428
  C      2.217509   -1.171729   -0.691428
  H     -0.919995   -1.207122    1.066584
  H     -2.462388   -2.012495    0.811121
  H     -1.331673   -1.835612   -0.532833
  H     -3.240714   -0.211731   -0.650321
  H     -2.739007    0.467523    0.897808
  H     -2.007822    1.798128   -1.079232
  H     -1.031789    0.434248   -1.634280
  H     -0.630033    1.764771    1.091577
  H      0.202210    2.276160   -0.385162
  H      2.441435   -1.455355   -1.714931
  H      1.878612   -2.032703   -0.113487
  H      3.091098   -0.739036   -0.202192

 Total Charge           Charge          ....    0
 Multiplicity           Mult            ....    1
 Number of Electrons    NEL             ....   64
 Basis Dimension        Dim             ....  136

ORBITAL ENERGIES
----------------

  NO   OCC          E(Eh)            E(eV)
   0   2.0000     -18.800937      -511.5995
   1   2.0000     -18.729718      -509.6615
   2   2.0000     -10.005114      -272.2530
   3   2.0000      -9.942672      -270.5539
   4   2.0000      -9.897820      -269.3334
   5   2.0000      -9.889843      -269.1163
   6   2.0000      -9.885849      -269.0076
   7   2.0000      -9.873791      -268.6795
   8   2.0000      -1.006650       -27.3924
   9   2.0000      -0.906627       -24.6706
  10   2.0000      -0.733435       -19.9578
  11   2.0000      -0.682381       -18.5685
  12   2.0000      -0.644502       -17.5378
  13   2.0000      -0.587348       -15.9825
  14   2.0000      -0.517517       -14.0823
  15   2.0000      -0.507432       -13.8079
  16   2.0000      -0.451639       -12.2897
  17   2.0000      -0.443866       -12.0782
  18   2.0000      -0.412826       -11.2336
  19   2.0000      -0.408618       -11.1191
  20   2.0000      -0.390801       -10.6342
  21   2.0000      -0.374823       -10.1994
  22   2.0000      -0.360497        -9.8096
  23   2.0000      -0.355946        -9.6858
  24   2.0000      -0.336793        -9.1646
  25   2.0000      -0.324838        -8.8393
  26   2.0000      -0.307099        -8.3566
  27   2.0000      -0.295407        -8.0384
  28   2.0000      -0.286584        -7.7984
  29   2.0000      -0.281108        -7.6493
  30   2.0000      -0.257697        -7.0123
  31   2.0000      -0.213172        -5.8007
  32   0.0000      -0.019693        -0.5359
  33   0.0000       0.035244         0.9590
  34   0.0000       0.052037         1.4160
  35   0.0000       0.074435         2.0255
  36   0.0000       0.077376         2.1055

MULLIKEN ATOMIC CHARGES
-----------------------
   0 C :   -0.300352
   1 C :   -0.176410
   2 C :   -0.179977
   3 C :   -0.117712
   4 C :    0.072908
   5 O :   -0.209127
   6 O :   -0.242462
   7 C :   -0.108716
   8 H :    0.132931
   9 H :    0.103799
  10 H :    0.094626
  11 H :    0.087326
  12 H :    0.084284
  13 H :    0.085570
  14 H :    0.100552
  15 H :    0.098206
  16 H :    0.114052
  17 H :    0.120041
  18 H :    0.119391
  19 H :    0.121070
Sum of atomic charges:   -0.0000000

LOEWDIN ATOMIC CHARGES
----------------------
   0 C :   -0.350519
   1 C :   -0.232053
   2 C :   -0.227379
   3 C :   -0.241102
   4 C :    0.029301
   5 O :   -0.172104
   6 O :   -0.072264
   7 C :   -0.203060
   8 H :    0.123528
   9 H :    0.120665
  10 H :    0.116777
  11 H :    0.116519
  12 H :    0.115263
  13 H :    0.118646
  14 H :    0.120079
  15 H :    0.133819
  16 H :    0.144427
  17 H :    0.119878
  18 H :    0.119296
  19 H :    0.120283

  Mayer bond orders larger than 0.100000
B(  0-C ,  1-C ) :   1.1773 B(  0-C ,  8-H ) :   0.9276 B(  0-C ,  9-H ) :   0.9471
B(  0-C , 10-H ) :   0.9506 B(  1-C ,  2-C ) :   1.1243 B(  1-C , 11-H ) :   0.9247
B(  1-C , 12-H ) :   0.9232 B(  2-C ,  3-C ) :   1.1052 B(  2-C , 13-H ) :   0.9182
B(  2-C , 14-H ) :   0.9168 B(  3-C ,  4-C ) :   1.0539 B(  3-C , 15-H ) :   0.9081
B(  3-C , 16-H ) :   0.8869 B(  4-C ,  5-O ) :   2.0428 B(  4-C ,  6-O ) :   1.1913
B(  6-O ,  7-C ) :   0.9414 B(  7-C , 17-H ) :   0.9587 B(  7-C , 18-H ) :   0.9534
B(  7-C , 19-H ) :   0.9485

Dispersion correction           -0.016389300
FINAL SINGLE POINT ENERGY      -385.450920436337

DIPOLE MOMENT
-------------

Method             : SCF
Type of density    : Electron Density
Multiplicity       :   1
Irrep              :   0
Energy             :  -385.5262556766310240 Eh
Relativity type    :
Basis              : AO
                                X                 Y                 Z
Electronic contribution:      6.174015182       2.469019274       1.536209465
Nuclear contribution   :     -6.295343316      -2.583010212      -2.284734505
                        -----------------------------------------
Total Dipole Moment    :     -0.121328134      -0.113990938      -0.748525041
                        -----------------------------------------
Magnitude (a.u.)       :      0.766814310
Magnitude (Debye)      :      1.949087081

Rotational constants in cm-1:             0.099092             0.045567             0.041633
Rotational constants in MHz :          2970.698572          1366.067960          1248.133754

                             ****ORCA TERMINATED NORMALLY****
TOTAL RUN TIME: 0 days 0 hours 0 minutes 11 seconds 62 msec
