                         Program Version 6.0.0  -   RELEASE  -
|  1> ! pbe def2-sv(p) def2/J RI DEFGRID1 loosescf d4 GCP(DFT/SV(P)) printgap
|  2> %output
|  3>     printlevel normal
|  4> end
|  5> * xyz 0 1
|  6> C -3.3678618075 -0.9886748053 0.3850741534
|  7> C -1.8709612843 -0.7467968818 0.5404410026
|  8> C -1.3931389255 0.3499438039 -0.4068454845
|  9> C 0.0774507277 0.6643905576 -0.3159885631
| 10> O 0.60593479 1.5763099149 -0.9228362751
| 11> O 0.7342408285 -0.1495522448 0.4965895619
| 12> C 2.1506336098 0.0353227835 0.6537580853
| 13> C 2.9243607143 -0.7218298381 -0.4147459162
| 14> H -3.6960323125 -1.7700681766 1.0648403762
| 15> H -3.9266011475 -0.0827413795 0.6069676163
| 16> H -3.6018808965 -1.296001027 -0.6311899959
| 17> H -1.3253639926 -1.6677602696 0.3321638488
| 18> H -1.6492130393 -0.4574748351 1.5686495915
| 19> H -1.9323091731 1.2824931044 -0.2243196363
| 20> H -1.5930119249 0.0710108932 -1.4447275716
| 21> H 2.3714022208 1.1058974124 0.6026417219
| 22> H 2.3684178028 -0.3507348201 1.6500241829
| 23> H 2.6940170154 -0.3171526929 -1.3978313203
| 24> H 3.9884663671 -0.6157278346 -0.2309595516
| 25> H 2.6593592869 -1.7753885696 -0.3936164321
| 26> *
| 27>
| 28>                          ****END OF INPUT****

CARTESIAN COORDINATES (ANGSTROEM)
---------------------------------
  C     -3.367862   -0.988675    0.385074
  C     -1.870961   -0.746797    0.540441
  C     -1.393139    0.349944   -0.406845
  C      0.077451    0.664391   -0.315989
  O      0.605935    1.576310   -0.922836
  O      0.734241   -0.149552    0.496590
  C      2.150634    0.035323    0.653758
  C      2.924361   -0.721830   -0.414746
  H     -3.696032   -1.770068    1.064840
  H     -3.926601   -0.082741    0.606968
  H     -3.601881   -1.296001   -0.631190
  H     -1.325364   -1.667760    0.332164
  H     -1.649213   -0.457475    1.568650
  H     -1.932309    1.282493   -0.224320
  H     -1.593012    0.071011   -1.444728
  H      2.371402    1.105897    0.602642
  H      2.368418   -0.350735    1.650024
  H      2.694017   -0.317153   -1.397831
  H      3.988466   -0.615728   -0.230960
  H      2.659359   -1.775389   -0.393616

 Total Charge           Charge          ....    0
 Multiplicity           Mult            ....    1
 Number of Electrons    NEL             ....   64
 Basis Dimension        Dim             ....  136

ORBITAL ENERGIES
----------------

  NO   OCC          E(Eh)            E(eV)
   0   2.0000     -18.797589      -511.5084
   1   2.0000     -18.728675      -509.6332
   2   2.0000     -10.001800      -272.1628
   3   2.0000      -9.945370      -270.6273
   4   2.0000      -9.895962      -269.2828
   5   2.0000      -9.888323      -269.0749
   6   2.0000      -9.885964      -269.0108
   7   2.0000      -9.877364      -268.7767
   8   2.0000      -1.003818       -27.3153
   9   2.0000      -0.904900       -24.6236
  10   2.0000      -0.728302       -19.8181
  11   2.0000      -0.694245       -18.8914
  12   2.0000      -0.637875       -17.3575
  13   2.0000      -0.588020       -16.0008
  14   2.0000      -0.534419       -14.5423
  15   2.0000      -0.496507       -13.5106
  16   2.0000      -0.453403       -12.3377
  17   2.0000      -0.438466       -11.9313
  18   2.0000      -0.414774       -11.2866
  19   2.0000      -0.400232       -10.8909
  20   2.0000      -0.388753       -10.5785
  21   2.0000      -0.368159       -10.0181
  22   2.0000      -0.361226        -9.8295
  23   2.0000      -0.352827        -9.6009
  24   2.0000      -0.331475        -9.0199
  25   2.0000      -0.321363        -8.7447
  26   2.0000      -0.317133        -8.6296
  27   2.0000      -0.305753        -8.3200
  28   2.0000      -0.294232        -8.0065
  29   2.0000      -0.287817        -7.8319
  30   2.0000      -0.252780        -6.8785
  31   2.0000      -0.212947        -5.7946
  32   0.0000      -0.017051        -0.4640
  33   0.0000       0.034616         0.9420
  34   0.0000       0.051949         1.4136
  35   0.0000       0.075989         2.0678
  36   0.0000       0.078616         2.1393

MULLIKEN ATOMIC CHARGES
-----------------------
   0 C :   -0.256478
   1 C :   -0.183976
   2 C :   -0.201096
   3 C :    0.139442
   4 O :   -0.217021
   5 O :   -0.235745
   6 C :   -0.012644
   7 C :   -0.303808
   8 H :    0.104215
   9 H :    0.097449
  10 H :    0.096593
  11 H :    0.092276
  12 H :    0.092183
  13 H :    0.113190
  14 H :    0.114891
  15 H :    0.108474
  16 H :    0.100901
  17 H :    0.126588
  18 H :    0.112294
  19 H :    0.112273
Sum of atomic charges:   -0.0000000

LOEWDIN ATOMIC CHARGES
----------------------
   0 C :   -0.339894
   1 C :   -0.236923
   2 C :   -0.248061
   3 C :    0.036414
   4 O :   -0.179507
   5 O :   -0.059103
   6 C :   -0.112684
   7 C :   -0.355920
   8 H :    0.120166
   9 H :    0.117167
  10 H :    0.116970
  11 H :    0.118219
  12 H :    0.118321
  13 H :    0.141315
  14 H :    0.142389
  15 H :    0.119876
  16 H :    0.116626
  17 H :    0.130576
  18 H :    0.130310
  19 H :    0.123742

  Mayer bond orders larger than 0.100000
B(  0-C ,  1-C ) :   1.1500 B(  0-C ,  8-H ) :   0.9536 B(  0-C ,  9-H ) :   0.9538
B(  0-C , 10-H ) :   0.9537 B(  1-C ,  2-C ) :   1.1295 B(  1-C , 11-H ) :   0.9237
B(  1-C , 12-H ) :   0.9291 B(  2-C ,  3-C ) :   1.0297 B(  2-C , 13-H ) :   0.9010
B(  2-C , 14-H ) :   0.8969 B(  3-C ,  4-O ) :   2.0366 B(  3-C ,  5-O ) :   1.2259
B(  5-O ,  6-C ) :   0.9199 B(  6-C ,  7-C ) :   1.1744 B(  6-C , 15-H ) :   0.9125
B(  6-C , 16-H ) :   0.9370 B(  7-C , 17-H ) :   0.9460 B(  7-C , 18-H ) :   0.9446
B(  7-C , 19-H ) :   0.9493

Dispersion correction           -0.014786095
FINAL SINGLE POINT ENERGY      -385.456722809934

DIPOLE MOMENT
-------------

Method             : SCF
Type of density    : Electron Density
Multiplicity       :   1
Irrep              :   0
Energy             :  -385.5320242408623699 Eh
Relativity type    :
Basis              : AO
                                X                 Y                 Z
Electronic contribution:      3.443502647       4.855127887      -0.984797459
Nuclear contribution   :     -3.397634201      -5.489304937       1.403409006
                        -----------------------------------------
Total Dipole Moment    :      0.045868447      -0.634177050       0.418611547
                        -----------------------------------------
Magnitude (a.u.)       :      0.761262157
Magnitude (Debye)      :      1.934974629

Rotational constants in cm-1:             0.136370             0.033598             0.029254
Rotational constants in MHz :          4088.273823          1007.244965           877.013152

                             ****ORCA TERMINATED NORMALLY****
TOTAL RUN TIME: 0 days 0 hours 0 minutes 9 seconds 869 msec
