                         Program Version 6.0.0  -   RELEASE  -
|  1> ! r2scan-3c def2/J RI DEFGRID2 scfconv6 printgap
|  2> %output
|  3>     printlevel normal
|  4> end
|  5> * xyz 0 1
|  6> C -2.4741546707 -0.9788249744 0.9426815428
|  7> C -2.5534920238 0.0786829333 -0.1516322461
|  8> C -1.290058243 0.0888501883 -1.0182327073
|  9> C -0.0949125611 0.5375040287 -0.2171801127
| 10> O -0.0324555342 1.5691938415 0.4205673914
| 11> O 0.9006563436 -0.3340794323 -0.2907704314
| 12> C 2.1227841288 -0.03657145 0.4057487713
| 13> C 3.2304501253 -0.8839956832 -0.1905114204
| 14> H -1.6411042199 -0.7705272225 1.6116900844
| 15> H -3.3889546208 -0.9866469095 1.5291126663
| 16> H -2.3300829596 -1.9662228167 0.5107175572
| 17> H -2.6746165879 1.0654574382 0.2992548317
| 18> H -3.415885424 -0.1169222745 -0.78920933
| 19> H -1.4184533236 0.7982371612 -1.8375067494
| 20> H -1.0847603044 -0.9005621664 -1.4248793044
| 21> H 2.3263700053 1.0347765721 0.3072935726
| 22> H 1.9723842915 -0.262255444 1.4664245254
| 23> H 4.1574646758 -0.6861891718 0.3373689371
| 24> H 2.9813751536 -1.936833114 -0.0978946905
| 25> H 3.3589660818 -0.6455555134 -1.2423046575
| 26> *
| 27>
| 28>                          ****END OF INPUT****

CARTESIAN COORDINATES (ANGSTROEM)
---------------------------------
  C     -2.474155   -0.978825    0.942682
  C     -2.553492    0.078683   -0.151632
  C     -1.290058    0.088850   -1.018233
  C     -0.094913    0.537504   -0.217180
  O     -0.032456    1.569194    0.420567
  O      0.900656   -0.334079   -0.290770
  C      2.122784   -0.036571    0.405749
  C      3.230450   -0.883996   -0.190511
  H     -1.641104   -0.770527    1.611690
  H     -3.388955   -0.986647    1.529113
  H     -2.330083   -1.966223    0.510718
  H     -2.674617    1.065457    0.299255
  H     -3.415885   -0.116922   -0.789209
  H     -1.418453    0.798237   -1.837507
  H     -1.084760   -0.900562   -1.424879
  H      2.326370    1.034777    0.307294
  H      1.972384   -0.262255    1.466425
  H      4.157465   -0.686189    0.337369
  H      2.981375   -1.936833   -0.097895
  H      3.358966   -0.645556   -1.242305

 Total Charge           Charge          ....    0
 Multiplicity           Mult            ....    1
 Number of Electrons    NEL             ....   64
 Basis Dimension        Dim             ....  222

ORBITAL ENERGIES
----------------

  NO   OCC          E(Eh)            E(eV)
   0   2.0000     -18.997143      -516.9386
   1   2.0000     -18.926389      -515.0132
   2   2.0000     -10.150504      -276.2093
   3   2.0000     -10.091081      -274.5923
   4   2.0000     -10.040082      -273.2045
   5   2.0000     -10.033420      -273.0232
   6   2.0000     -10.032198      -272.9900
   7   2.0000     -10.019099      -272.6336
   8   2.0000      -1.071535       -29.1579
   9   2.0000      -0.973881       -26.5006
  10   2.0000      -0.773128       -21.0379
  11   2.0000      -0.742977       -20.2174
  12   2.0000      -0.677561       -18.4374
  13   2.0000      -0.618319       -16.8253
  14   2.0000      -0.564922       -15.3723
  15   2.0000      -0.528965       -14.3939
  16   2.0000      -0.472605       -12.8602
  17   2.0000      -0.461570       -12.5600
  18   2.0000      -0.431620       -11.7450
  19   2.0000      -0.428205       -11.6520
  20   2.0000      -0.409093       -11.1320
  21   2.0000      -0.379159       -10.3175
  22   2.0000      -0.377890       -10.2829
  23   2.0000      -0.366134        -9.9630
  24   2.0000      -0.361690        -9.8421
  25   2.0000      -0.336221        -9.1490
  26   2.0000      -0.321543        -8.7496
  27   2.0000      -0.308815        -8.4033
  28   2.0000      -0.308232        -8.3874
  29   2.0000      -0.305876        -8.3233
  30   2.0000      -0.271434        -7.3861
  31   2.0000      -0.234383        -6.3779
  32   0.0000      -0.014813        -0.4031
  33   0.0000       0.074029         2.0144
  34   0.0000       0.096922         2.6374
  35   0.0000       0.105586         2.8731
  36   0.0000       0.122838         3.3426

MULLIKEN ATOMIC CHARGES
-----------------------
   0 C :   -0.494025
   1 C :   -0.216106
   2 C :   -0.299062
   3 C :    0.334773
   4 O :   -0.423380
   5 O :   -0.161856
   6 C :   -0.154084
   7 C :   -0.441838
   8 H :    0.156058
   9 H :    0.148569
  10 H :    0.146165
  11 H :    0.161455
  12 H :    0.144154
  13 H :    0.165401
  14 H :    0.163641
  15 H :    0.170100
  16 H :    0.148250
  17 H :    0.146944
  18 H :    0.152106
  19 H :    0.152736
Sum of atomic charges:    0.0000000

LOEWDIN ATOMIC CHARGES
----------------------
   0 C :   -0.416872
   1 C :   -0.293476
   2 C :   -0.232616
   3 C :    0.352794
   4 O :   -0.434652
   5 O :   -0.598142
   6 C :    0.032619
   7 C :   -0.386792
   8 H :    0.155764
   9 H :    0.152826
  10 H :    0.150479
  11 H :    0.167557
  12 H :    0.152694
  13 H :    0.181605
  14 H :    0.176781
  15 H :    0.186339
  16 H :    0.175544
  17 H :    0.159393
  18 H :    0.159087
  19 H :    0.159069

  Mayer bond orders larger than 0.100000
B(  0-C ,  1-C ) :   0.9049 B(  0-C ,  8-H ) :   0.9731 B(  0-C ,  9-H ) :   0.9687
B(  0-C , 10-H ) :   0.9819 B(  1-C ,  2-C ) :   0.8913 B(  1-C , 11-H ) :   0.9667
B(  1-C , 12-H ) :   0.9657 B(  2-C ,  3-C ) :   0.9393 B(  2-C , 13-H ) :   0.9350
B(  2-C , 14-H ) :   1.0060 B(  3-C ,  4-O ) :   1.8228 B(  3-C ,  5-O ) :   1.0715
B(  5-O ,  6-C ) :   0.7956 B(  6-C ,  7-C ) :   0.9442 B(  6-C , 15-H ) :   0.9615
B(  6-C , 16-H ) :   0.9462 B(  7-C , 17-H ) :   0.9678 B(  7-C , 18-H ) :   0.9692
B(  7-C , 19-H ) :   0.9747

Dispersion correction           -0.005025916
FINAL SINGLE POINT ENERGY      -386.236196173004

DIPOLE MOMENT
-------------

Method             : SCF
Type of density    : Electron Density
Multiplicity       :   1
Irrep              :   0
Energy             :  -386.2428560233608437 Eh
Relativity type    :
Basis              : AO
                                X                 Y                 Z
Electronic contribution:      1.328056892       4.316539098      -0.915140535
Nuclear contribution   :     -1.072863897      -5.022683598       0.630559612
                        -----------------------------------------
Total Dipole Moment    :      0.255192994      -0.706144500      -0.284580923
                        -----------------------------------------
Magnitude (a.u.)       :      0.802963151
Magnitude (Debye)      :      2.040970131

Rotational constants in cm-1:             0.135569             0.033714             0.031584
Rotational constants in MHz :          4064.251828          1010.730870           946.874419

                             ****ORCA TERMINATED NORMALLY****
TOTAL RUN TIME: 0 days 0 hours 0 minutes 32 seconds 643 msec
