                         Program Version 6.0.0  -   RELEASE  -
|  1> ! r2scan-3c def2/J RI DEFGRID2 scfconv6 printgap
|  2> %output
|  3>     printlevel normal
|  4> end
|  5> %cpcm
|  6>     smd true
|  7>     smdsolvent "water"
|  8> end
|  9> * xyz 0 1
| 10> C -2.4741546707 -0.9788249744 0.9426815428
| 11> C -2.5534920238 0.0786829333 -0.1516322461
| 12> C -1.290058243 0.0888501883 -1.0182327073
| 13> C -0.0949125611 0.5375040287 -0.2171801127
| 14> O -0.0324555342 1.5691938415 0.4205673914
| 15> O 0.9006563436 -0.3340794323 -0.2907704314
| 16> C 2.1227841288 -0.03657145 0.4057487713
| 17> C 3.2304501253 -0.8839956832 -0.1905114204
| 18> H -1.6411042199 -0.7705272225 1.6116900844
| 19> H -3.3889546208 -0.9866469095 1.5291126663
| 20> H -2.3300829596 -1.9662228167 0.5107175572
| 21> H -2.6746165879 1.0654574382 0.2992548317
| 22> H -3.415885424 -0.1169222745 -0.78920933
| 23> H -1.4184533236 0.7982371612 -1.8375067494
| 24> H -1.0847603044 -0.9005621664 -1.4248793044
| 25> H 2.3263700053 1.0347765721 0.3072935726
| 26> H 1.9723842915 -0.262255444 1.4664245254
| 27> H 4.1574646758 -0.6861891718 0.3373689371
| 28> H 2.9813751536 -1.936833114 -0.0978946905
| 29> H 3.3589660818 -0.6455555134 -1.2423046575
| 30> *
| 31>
| 32>                          ****END OF INPUT****

CARTESIAN COORDINATES (ANGSTROEM)
---------------------------------
  C     -2.474155   -0.978825    0.942682
  C     -2.553492    0.078683   -0.151632
  C     -1.290058    0.088850   -1.018233
  C     -0.094913    0.537504   -0.217180
  O     -0.032456    1.569194    0.420567
  O      0.900656   -0.334079   -0.290770
  C      2.122784   -0.036571    0.405749
  C      3.230450   -0.883996   -0.190511
  H     -1.641104   -0.770527    1.611690
  H     -3.388955   -0.986647    1.529113
  H     -2.330083   -1.966223    0.510718
  H     -2.674617    1.065457    0.299255
  H     -3.415885   -0.116922   -0.789209
  H     -1.418453    0.798237   -1.837507
  H     -1.084760   -0.900562   -1.424879
  H      2.326370    1.034777    0.307294
  H      1.972384   -0.262255    1.466425
  H      4.157465   -0.686189    0.337369
  H      2.981375   -1.936833   -0.097895
  H      3.358966   -0.645556   -1.242305

 Total Charge           Charge          ....    0
 Multiplicity           Mult            ....    1
 Number of Electrons    NEL             ....   64
 Basis Dimension        Dim             ....  222

ORBITAL ENERGIES
----------------

  NO   OCC          E(Eh)            E(eV)
   0   2.0000     -19.003352      -517.1075
   1   2.0000     -18.943165      -515.4697
   2   2.0000     -10.161966      -276.5212
   3   2.0000     -10.083462      -274.3850
   4   2.0000     -10.035050      -273.0676
   5   2.0000     -10.027901      -272.8731
   6   2.0000     -10.018774      -272.6247
   7   2.0000     -10.011473      -272.4260
   8   2.0000      -1.079442       -29.3731
   9   2.0000      -0.988423       -26.8963
  10   2.0000      -0.769376       -20.9358
  11   2.0000      -0.735587       -20.0163
  12   2.0000      -0.672086       -18.2884
  13   2.0000      -0.612080       -16.6555
  14   2.0000      -0.558858       -15.2073
  15   2.0000      -0.528265       -14.3748
  16   2.0000      -0.473793       -12.8926
  17   2.0000      -0.463856       -12.6222
  18   2.0000      -0.441835       -12.0229
  19   2.0000      -0.421915       -11.4809
  20   2.0000      -0.407337       -11.0842
  21   2.0000      -0.375774       -10.2253
  22   2.0000      -0.369091       -10.0435
  23   2.0000      -0.361836        -9.8461
  24   2.0000      -0.355955        -9.6860
  25   2.0000      -0.331839        -9.0298
  26   2.0000      -0.317570        -8.6415
  27   2.0000      -0.304683        -8.2908
  28   2.0000      -0.303804        -8.2669
  29   2.0000      -0.302950        -8.2437
  30   2.0000      -0.278314        -7.5733
  31   2.0000      -0.251630        -6.8472
  32   0.0000      -0.023394        -0.6366
  33   0.0000       0.076528         2.0824
  34   0.0000       0.104804         2.8519
  35   0.0000       0.115628         3.1464
  36   0.0000       0.130577         3.5532

MULLIKEN ATOMIC CHARGES
-----------------------
   0 C :   -0.529213
   1 C :   -0.224042
   2 C :   -0.314432
   3 C :    0.379186
   4 O :   -0.510495
   5 O :   -0.180030
   6 C :   -0.154308
   7 C :   -0.489012
   8 H :    0.162027
   9 H :    0.161456
  10 H :    0.162253
  11 H :    0.154564
  12 H :    0.163398
  13 H :    0.194176
  14 H :    0.179284
  15 H :    0.173085
  16 H :    0.173292
  17 H :    0.168573
  18 H :    0.164436
  19 H :    0.165801
Sum of atomic charges:   -0.0000000

LOEWDIN ATOMIC CHARGES
----------------------
   0 C :   -0.423821
   1 C :   -0.292859
   2 C :   -0.229474
   3 C :    0.362950
   4 O :   -0.496256
   5 O :   -0.599558
   6 C :    0.035665
   7 C :   -0.389787
   8 H :    0.156134
   9 H :    0.156212
  10 H :    0.155835
  11 H :    0.163345
  12 H :    0.160310
  13 H :    0.191814
  14 H :    0.184522
  15 H :    0.188028
  16 H :    0.184157
  17 H :    0.168111
  18 H :    0.162471
  19 H :    0.162203

  Mayer bond orders larger than 0.100000
B(  0-C ,  1-C ) :   0.8987 B(  0-C ,  8-H ) :   0.9707 B(  0-C ,  9-H ) :   0.9657
B(  0-C , 10-H ) :   0.9782 B(  1-C ,  2-C ) :   0.8768 B(  1-C , 11-H ) :   0.9714
B(  1-C , 12-H ) :   0.9614 B(  2-C ,  3-C ) :   0.9421 B(  2-C , 13-H ) :   0.9281
B(  2-C , 14-H ) :   0.9954 B(  3-C ,  4-O ) :   1.7514 B(  3-C ,  5-O ) :   1.0975
B(  5-O ,  6-C ) :   0.7827 B(  6-C ,  7-C ) :   0.9429 B(  6-C , 15-H ) :   0.9561
B(  6-C , 16-H ) :   0.9372 B(  7-C , 17-H ) :   0.9614 B(  7-C , 18-H ) :   0.9664
B(  7-C , 19-H ) :   0.9734

Dispersion correction           -0.005025916
FINAL SINGLE POINT ENERGY      -386.241684427519

DIPOLE MOMENT
-------------

Method             : SCF
Type of density    : Electron Density
Multiplicity       :   1
Irrep              :   0
Energy             :  -386.2483442778756171 Eh
Relativity type    :
Basis              : AO
                                X                 Y                 Z
Electronic contribution:      1.392151312       4.010281629      -1.074031381
Nuclear contribution   :     -1.072863897      -5.022683598       0.630559612
                        -----------------------------------------
Total Dipole Moment    :      0.319287415      -1.012401969      -0.443471769
                        -----------------------------------------
Magnitude (a.u.)       :      1.150464867
Magnitude (Debye)      :      2.924249298

Rotational constants in cm-1:             0.135569             0.033714             0.031584
Rotational constants in MHz :          4064.251828          1010.730870           946.874419

                             ****ORCA TERMINATED NORMALLY****
TOTAL RUN TIME: 0 days 0 hours 0 minutes 38 seconds 326 msec
