                         Program Version 6.0.0  -   RELEASE  -
|  1> ! r2scan-3c def2/J RI DEFGRID2 scfconv6 printgap
|  2> %output
|  3>     printlevel normal
|  4> end
|  5> * xyz 0 1
|  6> C 2.3918222763 -0.3790312732 0.3697853751
|  7> C 1.3294765849 0.5056305333 -0.2733228915
|  8> C -0.0041162744 -0.2333884746 -0.4722067051
|  9> C -1.1633356302 0.4482283959 0.2531683422
| 10> N -2.3828323859 -0.3366773137 0.105734136
| 11> H 2.5968141149 -1.2439819973 -0.2565741443
| 12> H 3.3180164493 0.1747799075 0.5050568806
| 13> H 2.0549234206 -0.7296092821 1.3423816036
| 14> H 1.1685374877 1.3808918335 0.3596305665
| 15> H 1.7019484911 0.8663654946 -1.2334308753
| 16> H -0.2479723829 -0.297786034 -1.5344782245
| 17> H 0.0724229667 -1.2535218073 -0.0954025839
| 18> H -1.2675903194 1.4810863459 -0.1247415531
| 19> H -0.9389512178 0.5057227099 1.3223307149
| 20> H -2.6291003901 -0.3984129831 -0.8768496707
| 21> H -3.1488595296 0.1243597714 0.5834182556
| 22> *
| 23>
| 24>                          ****END OF INPUT****

CARTESIAN COORDINATES (ANGSTROEM)
---------------------------------
  C      2.391822   -0.379031    0.369785
  C      1.329477    0.505631   -0.273323
  C     -0.004116   -0.233388   -0.472207
  C     -1.163336    0.448228    0.253168
  N     -2.382832   -0.336677    0.105734
  H      2.596814   -1.243982   -0.256574
  H      3.318016    0.174780    0.505057
  H      2.054923   -0.729609    1.342382
  H      1.168537    1.380892    0.359631
  H      1.701948    0.866365   -1.233431
  H     -0.247972   -0.297786   -1.534478
  H      0.072423   -1.253522   -0.095403
  H     -1.267590    1.481086   -0.124742
  H     -0.938951    0.505723    1.322331
  H     -2.629100   -0.398413   -0.876850
  H     -3.148860    0.124360    0.583418

 Total Charge           Charge          ....    0
 Multiplicity           Mult            ....    1
 Number of Electrons    NEL             ....   42
 Basis Dimension        Dim             ....  155

ORBITAL ENERGIES
----------------

  NO   OCC          E(Eh)            E(eV)
   0   2.0000     -14.133645      -384.5960
   1   2.0000     -10.047953      -273.4187
   2   2.0000     -10.023296      -272.7477
   3   2.0000     -10.018970      -272.6300
   4   2.0000     -10.014300      -272.5029
   5   2.0000      -0.845144       -22.9975
   6   2.0000      -0.750584       -20.4244
   7   2.0000      -0.670561       -18.2469
   8   2.0000      -0.583345       -15.8736
   9   2.0000      -0.542770       -14.7695
  10   2.0000      -0.454319       -12.3627
  11   2.0000      -0.427023       -11.6199
  12   2.0000      -0.422218       -11.4891
  13   2.0000      -0.389918       -10.6102
  14   2.0000      -0.369047       -10.0423
  15   2.0000      -0.345838        -9.4107
  16   2.0000      -0.324889        -8.8407
  17   2.0000      -0.301147        -8.1946
  18   2.0000      -0.293709        -7.9922
  19   2.0000      -0.286818        -7.8047
  20   2.0000      -0.204273        -5.5585
  21   0.0000       0.074649         2.0313
  22   0.0000       0.096225         2.6184
  23   0.0000       0.118018         3.2114
  24   0.0000       0.124237         3.3807
  25   0.0000       0.138746         3.7755

MULLIKEN ATOMIC CHARGES
-----------------------
   0 C :   -0.482526
   1 C :   -0.248789
   2 C :   -0.216446
   3 C :   -0.259321
   4 N :   -0.546882
   5 H :    0.146905
   6 H :    0.141601
   7 H :    0.144317
   8 H :    0.145765
   9 H :    0.137217
  10 H :    0.130388
  11 H :    0.162569
  12 H :    0.127315
  13 H :    0.142822
  14 H :    0.237203
  15 H :    0.237863
Sum of atomic charges:    0.0000000

LOEWDIN ATOMIC CHARGES
----------------------
   0 C :   -0.424789
   1 C :   -0.318288
   2 C :   -0.286143
   3 C :   -0.075453
   4 N :   -0.747264
   5 H :    0.149552
   6 H :    0.148390
   7 H :    0.149309
   8 H :    0.153061
   9 H :    0.151235
  10 H :    0.152170
  11 H :    0.163164
  12 H :    0.146031
  13 H :    0.168880
  14 H :    0.234684
  15 H :    0.235460

  Mayer bond orders larger than 0.100000
B(  0-C ,  1-C ) :   0.9036 B(  0-C ,  5-H ) :   0.9814 B(  0-C ,  6-H ) :   0.9734
B(  0-C ,  7-H ) :   0.9805 B(  1-C ,  2-C ) :   0.8444 B(  1-C ,  8-H ) :   0.9886
B(  1-C ,  9-H ) :   0.9686 B(  2-C ,  3-C ) :   0.9042 B(  2-C , 10-H ) :   0.9575
B(  2-C , 11-H ) :   0.9828 B(  3-C ,  4-N ) :   0.9275 B(  3-C , 12-H ) :   0.9752
B(  3-C , 13-H ) :   0.9876 B(  4-N , 14-H ) :   0.9213 B(  4-N , 15-H ) :   0.9198

Dispersion correction           -0.003341815
FINAL SINGLE POINT ENERGY      -213.718821195881

DIPOLE MOMENT
-------------

Method             : SCF
Type of density    : Electron Density
Multiplicity       :   1
Irrep              :   0
Energy             :  -213.7259765066562807 Eh
Relativity type    :
Basis              : AO
                                X                 Y                 Z
Electronic contribution:     -2.593104721      -0.136130424      -0.193823684
Nuclear contribution   :      2.501431845       0.570339813      -0.007545813
                        -----------------------------------------
Total Dipole Moment    :     -0.091672876       0.434209388      -0.201369497
                        -----------------------------------------
Magnitude (a.u.)       :      0.487330876
Magnitude (Debye)      :      1.238696647

Rotational constants in cm-1:             0.498820             0.068317             0.067302
Rotational constants in MHz :         14954.254543          2048.095490          2017.649592

                             ****ORCA TERMINATED NORMALLY****
TOTAL RUN TIME: 0 days 0 hours 0 minutes 14 seconds 517 msec
