                         Program Version 6.0.0  -   RELEASE  -
|  1> ! r2scan-3c def2/J RI DEFGRID2 scfconv6 printgap
|  2> %output
|  3>     printlevel normal
|  4> end
|  5> %cpcm
|  6>     smd true
|  7>     smdsolvent "water"
|  8> end
|  9> * xyz 0 1
| 10> C 2.3918222763 -0.3790312732 0.3697853751
| 11> C 1.3294765849 0.5056305333 -0.2733228915
| 12> C -0.0041162744 -0.2333884746 -0.4722067051
| 13> C -1.1633356302 0.4482283959 0.2531683422
| 14> N -2.3828323859 -0.3366773137 0.105734136
| 15> H 2.5968141149 -1.2439819973 -0.2565741443
| 16> H 3.3180164493 0.1747799075 0.5050568806
| 17> H 2.0549234206 -0.7296092821 1.3423816036
| 18> H 1.1685374877 1.3808918335 0.3596305665
| 19> H 1.7019484911 0.8663654946 -1.2334308753
| 20> H -0.2479723829 -0.297786034 -1.5344782245
| 21> H 0.0724229667 -1.2535218073 -0.0954025839
| 22> H -1.2675903194 1.4810863459 -0.1247415531
| 23> H -0.9389512178 0.5057227099 1.3223307149
| 24> H -2.6291003901 -0.3984129831 -0.8768496707
| 25> H -3.1488595296 0.1243597714 0.5834182556
| 26> *
| 27>
| 28>                          ****END OF INPUT****

CARTESIAN COORDINATES (ANGSTROEM)
---------------------------------
  C      2.391822   -0.379031    0.369785
  C      1.329477    0.505631   -0.273323
  C     -0.004116   -0.233388   -0.472207
  C     -1.163336    0.448228    0.253168
  N     -2.382832   -0.336677    0.105734
  H      2.596814   -1.243982   -0.256574
  H      3.318016    0.174780    0.505057
  H      2.054923   -0.729609    1.342382
  H      1.168537    1.380892    0.359631
  H      1.701948    0.866365   -1.233431
  H     -0.247972   -0.297786   -1.534478
  H      0.072423   -1.253522   -0.095403
  H     -1.267590    1.481086   -0.124742
  H     -0.938951    0.505723    1.322331
  H     -2.629100   -0.398413   -0.876850
  H     -3.148860    0.124360    0.583418

 Total Charge           Charge          ....    0
 Multiplicity           Mult            ....    1
 Number of Electrons    NEL             ....   42
 Basis Dimension        Dim             ....  155

ORBITAL ENERGIES
----------------

  NO   OCC          E(Eh)            E(eV)
   0   2.0000     -14.127613      -384.4319
   1   2.0000     -10.041407      -273.2406
   2   2.0000     -10.016340      -272.5585
   3   2.0000     -10.012870      -272.4640
   4   2.0000     -10.007448      -272.3165
   5   2.0000      -0.839319       -22.8390
   6   2.0000      -0.744152       -20.2494
   7   2.0000      -0.664365       -18.0783
   8   2.0000      -0.576897       -15.6982
   9   2.0000      -0.536624       -14.6023
  10   2.0000      -0.447298       -12.1716
  11   2.0000      -0.420113       -11.4319
  12   2.0000      -0.416286       -11.3277
  13   2.0000      -0.383140       -10.4258
  14   2.0000      -0.362766        -9.8714
  15   2.0000      -0.340104        -9.2547
  16   2.0000      -0.317727        -8.6458
  17   2.0000      -0.295320        -8.0361
  18   2.0000      -0.287556        -7.8248
  19   2.0000      -0.279452        -7.6043
  20   2.0000      -0.204996        -5.5782
  21   0.0000       0.085373         2.3231
  22   0.0000       0.103146         2.8067
  23   0.0000       0.124494         3.3876
  24   0.0000       0.133372         3.6292
  25   0.0000       0.145904         3.9703

MULLIKEN ATOMIC CHARGES
-----------------------
   0 C :   -0.517002
   1 C :   -0.264191
   2 C :   -0.227076
   3 C :   -0.277481
   4 N :   -0.635927
   5 H :    0.155959
   6 H :    0.151472
   7 H :    0.153511
   8 H :    0.155006
   9 H :    0.148021
  10 H :    0.150589
  11 H :    0.154470
  12 H :    0.136333
  13 H :    0.155725
  14 H :    0.280554
  15 H :    0.280037
Sum of atomic charges:    0.0000000

LOEWDIN ATOMIC CHARGES
----------------------
   0 C :   -0.432612
   1 C :   -0.320147
   2 C :   -0.291038
   3 C :   -0.077321
   4 N :   -0.770022
   5 H :    0.151453
   6 H :    0.150706
   7 H :    0.151190
   8 H :    0.155615
   9 H :    0.153971
  10 H :    0.157659
  11 H :    0.159125
  12 H :    0.150891
  13 H :    0.171426
  14 H :    0.244161
  15 H :    0.244943

  Mayer bond orders larger than 0.100000
B(  0-C ,  1-C ) :   0.8964 B(  0-C ,  5-H ) :   0.9787 B(  0-C ,  6-H ) :   0.9710
B(  0-C ,  7-H ) :   0.9785 B(  1-C ,  2-C ) :   0.8413 B(  1-C ,  8-H ) :   0.9887
B(  1-C ,  9-H ) :   0.9698 B(  2-C ,  3-C ) :   0.8904 B(  2-C , 10-H ) :   0.9575
B(  2-C , 11-H ) :   0.9805 B(  3-C ,  4-N ) :   0.9424 B(  3-C , 12-H ) :   0.9795
B(  3-C , 13-H ) :   0.9873 B(  4-N , 14-H ) :   0.9048 B(  4-N , 15-H ) :   0.9036

Dispersion correction           -0.003341815
FINAL SINGLE POINT ENERGY      -213.723960617498

DIPOLE MOMENT
-------------

Method             : SCF
Type of density    : Electron Density
Multiplicity       :   1
Irrep              :   0
Energy             :  -213.7311159282725725 Eh
Relativity type    :
Basis              : AO
                                X                 Y                 Z
Electronic contribution:     -2.631645724       0.054282068      -0.277642689
Nuclear contribution   :      2.501431845       0.570339813      -0.007545813
                        -----------------------------------------
Total Dipole Moment    :     -0.130213879       0.624621880      -0.285188502
                        -----------------------------------------
Magnitude (a.u.)       :      0.698885276
Magnitude (Debye)      :      1.776425197

Rotational constants in cm-1:             0.498820             0.068317             0.067302
Rotational constants in MHz :         14954.254543          2048.095490          2017.649592

                             ****ORCA TERMINATED NORMALLY****
TOTAL RUN TIME: 0 days 0 hours 0 minutes 18 seconds 687 msec
