                         Program Version 6.0.0  -   RELEASE  -
|  1> ! r2scan-3c def2/J RI DEFGRID2 scfconv6 printgap
|  2> %output
|  3>     printlevel normal
|  4> end
|  5> * xyz 0 1
|  6> C -2.4840006468 -0.7588633122 1.0354106751
|  7> C -2.0660855439 -0.7769607073 -0.429888145
|  8> C -1.4067414321 0.5431036323 -0.8481278473
|  9> C -0.1135199012 0.7672850475 -0.1078555907
| 10> O 0.1112502916 1.7037690994 0.6328835779
| 11> O 0.7733005763 -0.1839803687 -0.3602998489
| 12> C 2.053971931 -0.0961404345 0.2847774125
| 13> C 2.9576206183 -1.1597015732 -0.3082387756
| 14> H -1.6224406209 -0.5901800941 1.6791411036
| 15> H -3.2004061298 0.0386297524 1.218140472
| 16> H -2.9411320185 -1.7050763613 1.3121598454
| 17> H -2.943864662 -0.9395450099 -1.0560498911
| 18> H -1.3640985908 -1.5931153724 -0.60506354
| 19> H -2.0661230347 1.3856667653 -0.6401381619
| 20> H -1.1794710844 0.5124596793 -1.9142917129
| 21> H 2.451874745 0.912203975 0.1291379614
| 22> H 1.9091721766 -0.2419030199 1.3604664716
| 23> H 3.9310818611 -1.1096645691 0.1681487205
| 24> H 2.5291857911 -2.1442660129 -0.1466336164
| 25> H 3.0718965815 -0.9981590314 -1.3760323522
| 26> *
| 27>
| 28>                          ****END OF INPUT****

CARTESIAN COORDINATES (ANGSTROEM)
---------------------------------
  C     -2.484001   -0.758863    1.035411
  C     -2.066086   -0.776961   -0.429888
  C     -1.406741    0.543104   -0.848128
  C     -0.113520    0.767285   -0.107856
  O      0.111250    1.703769    0.632884
  O      0.773301   -0.183980   -0.360300
  C      2.053972   -0.096140    0.284777
  C      2.957621   -1.159702   -0.308239
  H     -1.622441   -0.590180    1.679141
  H     -3.200406    0.038630    1.218140
  H     -2.941132   -1.705076    1.312160
  H     -2.943865   -0.939545   -1.056050
  H     -1.364099   -1.593115   -0.605064
  H     -2.066123    1.385667   -0.640138
  H     -1.179471    0.512460   -1.914292
  H      2.451875    0.912204    0.129138
  H      1.909172   -0.241903    1.360466
  H      3.931082   -1.109665    0.168149
  H      2.529186   -2.144266   -0.146634
  H      3.071897   -0.998159   -1.376032

 Total Charge           Charge          ....    0
 Multiplicity           Mult            ....    1
 Number of Electrons    NEL             ....   64
 Basis Dimension        Dim             ....  222

ORBITAL ENERGIES
----------------

  NO   OCC          E(Eh)            E(eV)
   0   2.0000     -18.996536      -516.9220
   1   2.0000     -18.925993      -515.0025
   2   2.0000     -10.149962      -276.1945
   3   2.0000     -10.092047      -274.6186
   4   2.0000     -10.040640      -273.2197
   5   2.0000     -10.036561      -273.1087
   6   2.0000     -10.032664      -273.0027
   7   2.0000     -10.019910      -272.6556
   8   2.0000      -1.072037       -29.1716
   9   2.0000      -0.972708       -26.4687
  10   2.0000      -0.776202       -21.1215
  11   2.0000      -0.741859       -20.1870
  12   2.0000      -0.677791       -18.4436
  13   2.0000      -0.615839       -16.7578
  14   2.0000      -0.569874       -15.5071
  15   2.0000      -0.534002       -14.5309
  16   2.0000      -0.471464       -12.8292
  17   2.0000      -0.453251       -12.3336
  18   2.0000      -0.439895       -11.9702
  19   2.0000      -0.424444       -11.5497
  20   2.0000      -0.410417       -11.1680
  21   2.0000      -0.379877       -10.3370
  22   2.0000      -0.377674       -10.2770
  23   2.0000      -0.370927       -10.0934
  24   2.0000      -0.355406        -9.6711
  25   2.0000      -0.334786        -9.1100
  26   2.0000      -0.327185        -8.9031
  27   2.0000      -0.312949        -8.5158
  28   2.0000      -0.309976        -8.4349
  29   2.0000      -0.308975        -8.4076
  30   2.0000      -0.270957        -7.3731
  31   2.0000      -0.230146        -6.2626
  32   0.0000      -0.014489        -0.3943
  33   0.0000       0.070627         1.9218
  34   0.0000       0.094751         2.5783
  35   0.0000       0.114432         3.1139
  36   0.0000       0.120057         3.2669

MULLIKEN ATOMIC CHARGES
-----------------------
   0 C :   -0.480156
   1 C :   -0.228055
   2 C :   -0.316479
   3 C :    0.346782
   4 O :   -0.417085
   5 O :   -0.160524
   6 C :   -0.145819
   7 C :   -0.443154
   8 H :    0.154595
   9 H :    0.149265
  10 H :    0.147258
  11 H :    0.145413
  12 H :    0.152261
  13 H :    0.169821
  14 H :    0.158841
  15 H :    0.163069
  16 H :    0.152229
  17 H :    0.147434
  18 H :    0.151404
  19 H :    0.152901
Sum of atomic charges:   -0.0000000

LOEWDIN ATOMIC CHARGES
----------------------
   0 C :   -0.414822
   1 C :   -0.293739
   2 C :   -0.231285
   3 C :    0.349052
   4 O :   -0.425240
   5 O :   -0.603069
   6 C :    0.034219
   7 C :   -0.386944
   8 H :    0.155990
   9 H :    0.153391
  10 H :    0.151717
  11 H :    0.153076
  12 H :    0.163682
  13 H :    0.177522
  14 H :    0.179184
  15 H :    0.182498
  16 H :    0.176779
  17 H :    0.159693
  18 H :    0.158864
  19 H :    0.159432

  Mayer bond orders larger than 0.100000
B(  0-C ,  1-C ) :   0.9133 B(  0-C ,  8-H ) :   0.9707 B(  0-C ,  9-H ) :   0.9781
B(  0-C , 10-H ) :   0.9703 B(  1-C ,  2-C ) :   0.8855 B(  1-C , 11-H ) :   0.9643
B(  1-C , 12-H ) :   0.9727 B(  2-C ,  3-C ) :   0.9562 B(  2-C , 13-H ) :   1.0048
B(  2-C , 14-H ) :   0.9463 B(  3-C ,  4-O ) :   1.8308 B(  3-C ,  5-O ) :   1.0541
B(  5-O ,  6-C ) :   0.8062 B(  6-C ,  7-C ) :   0.9420 B(  6-C , 15-H ) :   0.9584
B(  6-C , 16-H ) :   0.9490 B(  7-C , 17-H ) :   0.9681 B(  7-C , 18-H ) :   0.9706
B(  7-C , 19-H ) :   0.9737

Dispersion correction           -0.005101911
FINAL SINGLE POINT ENERGY      -386.235911094910

DIPOLE MOMENT
-------------

Method             : SCF
Type of density    : Electron Density
Multiplicity       :   1
Irrep              :   0
Energy             :  -386.2424468457717239 Eh
Relativity type    :
Basis              : AO
                                X                 Y                 Z
Electronic contribution:      1.488339514       5.239916990      -0.530659215
Nuclear contribution   :     -1.323138002      -6.050169795       0.125051630
                        -----------------------------------------
Total Dipole Moment    :      0.165201512      -0.810252804      -0.405607585
                        -----------------------------------------
Magnitude (a.u.)       :      0.921042159
Magnitude (Debye)      :      2.341103118

Rotational constants in cm-1:             0.110119             0.037984             0.033665
Rotational constants in MHz :          3301.296736          1138.717336          1009.244154

                             ****ORCA TERMINATED NORMALLY****
TOTAL RUN TIME: 0 days 0 hours 0 minutes 31 seconds 392 msec
