                         Program Version 6.0.0  -   RELEASE  -
|  1> ! r2scan-3c def2/J RI DEFGRID2 scfconv6 printgap
|  2> %output
|  3>     printlevel normal
|  4> end
|  5> %cpcm
|  6>     smd true
|  7>     smdsolvent "water"
|  8> end
|  9> * xyz 0 1
| 10> C -2.4840006468 -0.7588633122 1.0354106751
| 11> C -2.0660855439 -0.7769607073 -0.429888145
| 12> C -1.4067414321 0.5431036323 -0.8481278473
| 13> C -0.1135199012 0.7672850475 -0.1078555907
| 14> O 0.1112502916 1.7037690994 0.6328835779
| 15> O 0.7733005763 -0.1839803687 -0.3602998489
| 16> C 2.053971931 -0.0961404345 0.2847774125
| 17> C 2.9576206183 -1.1597015732 -0.3082387756
| 18> H -1.6224406209 -0.5901800941 1.6791411036
| 19> H -3.2004061298 0.0386297524 1.218140472
| 20> H -2.9411320185 -1.7050763613 1.3121598454
| 21> H -2.943864662 -0.9395450099 -1.0560498911
| 22> H -1.3640985908 -1.5931153724 -0.60506354
| 23> H -2.0661230347 1.3856667653 -0.6401381619
| 24> H -1.1794710844 0.5124596793 -1.9142917129
| 25> H 2.451874745 0.912203975 0.1291379614
| 26> H 1.9091721766 -0.2419030199 1.3604664716
| 27> H 3.9310818611 -1.1096645691 0.1681487205
| 28> H 2.5291857911 -2.1442660129 -0.1466336164
| 29> H 3.0718965815 -0.9981590314 -1.3760323522
| 30> *
| 31>
| 32>                          ****END OF INPUT****

CARTESIAN COORDINATES (ANGSTROEM)
---------------------------------
  C     -2.484001   -0.758863    1.035411
  C     -2.066086   -0.776961   -0.429888
  C     -1.406741    0.543104   -0.848128
  C     -0.113520    0.767285   -0.107856
  O      0.111250    1.703769    0.632884
  O      0.773301   -0.183980   -0.360300
  C      2.053972   -0.096140    0.284777
  C      2.957621   -1.159702   -0.308239
  H     -1.622441   -0.590180    1.679141
  H     -3.200406    0.038630    1.218140
  H     -2.941132   -1.705076    1.312160
  H     -2.943865   -0.939545   -1.056050
  H     -1.364099   -1.593115   -0.605064
  H     -2.066123    1.385667   -0.640138
  H     -1.179471    0.512460   -1.914292
  H      2.451875    0.912204    0.129138
  H      1.909172   -0.241903    1.360466
  H      3.931082   -1.109665    0.168149
  H      2.529186   -2.144266   -0.146634
  H      3.071897   -0.998159   -1.376032

 Total Charge           Charge          ....    0
 Multiplicity           Mult            ....    1
 Number of Electrons    NEL             ....   64
 Basis Dimension        Dim             ....  222

ORBITAL ENERGIES
----------------

  NO   OCC          E(Eh)            E(eV)
   0   2.0000     -19.002254      -517.0776
   1   2.0000     -18.943351      -515.4748
   2   2.0000     -10.161704      -276.5140
   3   2.0000     -10.084169      -274.4042
   4   2.0000     -10.035508      -273.0801
   5   2.0000     -10.028571      -272.8913
   6   2.0000     -10.018806      -272.6256
   7   2.0000     -10.011740      -272.4333
   8   2.0000      -1.079715       -29.3805
   9   2.0000      -0.987726       -26.8774
  10   2.0000      -0.771448       -20.9922
  11   2.0000      -0.733616       -19.9627
  12   2.0000      -0.671959       -18.2849
  13   2.0000      -0.609056       -16.5733
  14   2.0000      -0.563777       -15.3412
  15   2.0000      -0.532292       -14.4844
  16   2.0000      -0.470338       -12.7986
  17   2.0000      -0.454182       -12.3589
  18   2.0000      -0.450344       -12.2545
  19   2.0000      -0.420668       -11.4470
  20   2.0000      -0.405590       -11.0367
  21   2.0000      -0.375785       -10.2256
  22   2.0000      -0.372994       -10.1497
  23   2.0000      -0.363568        -9.8932
  24   2.0000      -0.348978        -9.4962
  25   2.0000      -0.329394        -8.9633
  26   2.0000      -0.321665        -8.7530
  27   2.0000      -0.312322        -8.4987
  28   2.0000      -0.306537        -8.3413
  29   2.0000      -0.302115        -8.2210
  30   2.0000      -0.276433        -7.5221
  31   2.0000      -0.247338        -6.7304
  32   0.0000      -0.023593        -0.6420
  33   0.0000       0.075265         2.0481
  34   0.0000       0.103799         2.8245
  35   0.0000       0.123490         3.3603
  36   0.0000       0.125750         3.4218

MULLIKEN ATOMIC CHARGES
-----------------------
   0 C :   -0.526910
   1 C :   -0.221667
   2 C :   -0.337019
   3 C :    0.390731
   4 O :   -0.507187
   5 O :   -0.173516
   6 C :   -0.149213
   7 C :   -0.491647
   8 H :    0.161456
   9 H :    0.163053
  10 H :    0.161642
  11 H :    0.163064
  12 H :    0.155950
  13 H :    0.179309
  14 H :    0.188601
  15 H :    0.171210
  16 H :    0.172902
  17 H :    0.168897
  18 H :    0.164688
  19 H :    0.165654
Sum of atomic charges:    0.0000000

LOEWDIN ATOMIC CHARGES
----------------------
   0 C :   -0.422927
   1 C :   -0.290178
   2 C :   -0.229271
   3 C :    0.358809
   4 O :   -0.489419
   5 O :   -0.602258
   6 C :    0.036632
   7 C :   -0.389860
   8 H :    0.155981
   9 H :    0.156139
  10 H :    0.156428
  11 H :    0.160184
  12 H :    0.164713
  13 H :    0.181357
  14 H :    0.190911
  15 H :    0.185586
  16 H :    0.183696
  17 H :    0.168324
  18 H :    0.162546
  19 H :    0.162609

  Mayer bond orders larger than 0.100000
B(  0-C ,  1-C ) :   0.8982 B(  0-C ,  8-H ) :   0.9693 B(  0-C ,  9-H ) :   0.9771
B(  0-C , 10-H ) :   0.9662 B(  1-C ,  2-C ) :   0.8769 B(  1-C , 11-H ) :   0.9611
B(  1-C , 12-H ) :   0.9719 B(  2-C ,  3-C ) :   0.9545 B(  2-C , 13-H ) :   1.0006
B(  2-C , 14-H ) :   0.9366 B(  3-C ,  4-O ) :   1.7560 B(  3-C ,  5-O ) :   1.0862
B(  5-O ,  6-C ) :   0.7921 B(  6-C ,  7-C ) :   0.9439 B(  6-C , 15-H ) :   0.9518
B(  6-C , 16-H ) :   0.9406 B(  7-C , 17-H ) :   0.9617 B(  7-C , 18-H ) :   0.9680
B(  7-C , 19-H ) :   0.9722

Dispersion correction           -0.005101911
FINAL SINGLE POINT ENERGY      -386.241757707347

DIPOLE MOMENT
-------------

Method             : SCF
Type of density    : Electron Density
Multiplicity       :   1
Irrep              :   0
Energy             :  -386.2482934582087069 Eh
Relativity type    :
Basis              : AO
                                X                 Y                 Z
Electronic contribution:      1.506547945       4.933587877      -0.725093500
Nuclear contribution   :     -1.323138002      -6.050169795       0.125051630
                        -----------------------------------------
Total Dipole Moment    :      0.183409943      -1.116581918      -0.600041870
                        -----------------------------------------
Magnitude (a.u.)       :      1.280798435
Magnitude (Debye)      :      3.255530901

Rotational constants in cm-1:             0.110119             0.037984             0.033665
Rotational constants in MHz :          3301.296736          1138.717336          1009.244154

                             ****ORCA TERMINATED NORMALLY****
TOTAL RUN TIME: 0 days 0 hours 0 minutes 38 seconds 562 msec
