                         Program Version 6.0.0  -   RELEASE  -
|  1> ! r2scan-3c def2/J RI DEFGRID2 scfconv6 printgap
|  2> %output
|  3>     printlevel normal
|  4> end
|  5> * xyz 0 1
|  6> C 2.4034162077 -0.338729012 -0.3740298217
|  7> C 1.3248405096 0.5251441313 0.2709683782
|  8> C 0.0067327297 -0.2396695999 0.4762057943
|  9> C -1.1726655974 0.4198044652 -0.2536250635
| 10> N -2.4444750835 -0.272954477 -0.1109959481
| 11> H 2.6283921769 -1.1997542376 0.2515698642
| 12> H 2.0731891503 -0.695403478 -1.3470593746
| 13> H 3.3178902421 0.2335581923 -0.5109880609
| 14> H 1.6924933567 0.8963655024 1.2288259223
| 15> H 1.1419001744 1.3944288466 -0.3639775107
| 16> H 0.1154815738 -1.2623323492 0.1059063794
| 17> H -0.2320198841 -0.3033591204 1.5407803841
| 18> H -0.9500324122 0.4800480919 -1.3227399128
| 19> H -1.3097073675 1.4383259809 0.1206561671
| 20> H -2.6886823597 -0.3340462293 0.8720860648
| 21> H -2.3530901922 -1.2227298919 -0.4568529736
| 22> *
| 23>
| 24>                          ****END OF INPUT****

CARTESIAN COORDINATES (ANGSTROEM)
---------------------------------
  C      2.403416   -0.338729   -0.374030
  C      1.324841    0.525144    0.270968
  C      0.006733   -0.239670    0.476206
  C     -1.172666    0.419804   -0.253625
  N     -2.444475   -0.272954   -0.110996
  H      2.628392   -1.199754    0.251570
  H      2.073189   -0.695403   -1.347059
  H      3.317890    0.233558   -0.510988
  H      1.692493    0.896366    1.228826
  H      1.141900    1.394429   -0.363978
  H      0.115482   -1.262332    0.105906
  H     -0.232020   -0.303359    1.540780
  H     -0.950032    0.480048   -1.322740
  H     -1.309707    1.438326    0.120656
  H     -2.688682   -0.334046    0.872086
  H     -2.353090   -1.222730   -0.456853

 Total Charge           Charge          ....    0
 Multiplicity           Mult            ....    1
 Number of Electrons    NEL             ....   42
 Basis Dimension        Dim             ....  155

ORBITAL ENERGIES
----------------

  NO   OCC          E(Eh)            E(eV)
   0   2.0000     -14.133432      -384.5902
   1   2.0000     -10.047900      -273.4173
   2   2.0000     -10.024966      -272.7932
   3   2.0000     -10.021197      -272.6906
   4   2.0000     -10.017110      -272.5794
   5   2.0000      -0.845996       -23.0207
   6   2.0000      -0.752018       -20.4635
   7   2.0000      -0.670048       -18.2329
   8   2.0000      -0.587359       -15.9829
   9   2.0000      -0.546356       -14.8671
  10   2.0000      -0.467488       -12.7210
  11   2.0000      -0.427577       -11.6350
  12   2.0000      -0.407251       -11.0819
  13   2.0000      -0.391643       -10.6571
  14   2.0000      -0.369526       -10.0553
  15   2.0000      -0.342099        -9.3090
  16   2.0000      -0.329374        -8.9627
  17   2.0000      -0.310466        -8.4482
  18   2.0000      -0.301933        -8.2160
  19   2.0000      -0.289206        -7.8697
  20   2.0000      -0.202124        -5.5001
  21   0.0000       0.072568         1.9747
  22   0.0000       0.094236         2.5643
  23   0.0000       0.117736         3.2038
  24   0.0000       0.129735         3.5303
  25   0.0000       0.132398         3.6027

MULLIKEN ATOMIC CHARGES
-----------------------
   0 C :   -0.483322
   1 C :   -0.248834
   2 C :   -0.200732
   3 C :   -0.313025
   4 N :   -0.530089
   5 H :    0.146496
   6 H :    0.142830
   7 H :    0.142528
   8 H :    0.139077
   9 H :    0.147129
  10 H :    0.139266
  11 H :    0.136473
  12 H :    0.151570
  13 H :    0.150304
  14 H :    0.240655
  15 H :    0.239674
Sum of atomic charges:    0.0000000

LOEWDIN ATOMIC CHARGES
----------------------
   0 C :   -0.425300
   1 C :   -0.318687
   2 C :   -0.306939
   3 C :   -0.085641
   4 N :   -0.731828
   5 H :    0.149123
   6 H :    0.148366
   7 H :    0.149031
   8 H :    0.151995
   9 H :    0.153383
  10 H :    0.153315
  11 H :    0.152762
  12 H :    0.170851
  13 H :    0.171469
  14 H :    0.234056
  15 H :    0.234045

  Mayer bond orders larger than 0.100000
B(  0-C ,  1-C ) :   0.9002 B(  0-C ,  5-H ) :   0.9818 B(  0-C ,  6-H ) :   0.9816
B(  0-C ,  7-H ) :   0.9724 B(  1-C ,  2-C ) :   0.8403 B(  1-C ,  8-H ) :   0.9681
B(  1-C ,  9-H ) :   0.9904 B(  2-C ,  3-C ) :   0.8496 B(  2-C , 10-H ) :   0.9808
B(  2-C , 11-H ) :   0.9592 B(  3-C ,  4-N ) :   0.9484 B(  3-C , 12-H ) :   1.0036
B(  3-C , 13-H ) :   0.9998 B(  4-N , 14-H ) :   0.9174 B(  4-N , 15-H ) :   0.9170

Dispersion correction           -0.003357246
FINAL SINGLE POINT ENERGY      -213.719108697419

DIPOLE MOMENT
-------------

Method             : SCF
Type of density    : Electron Density
Multiplicity       :   1
Irrep              :   0
Energy             :  -213.7263001749283831 Eh
Relativity type    :
Basis              : AO
                                X                 Y                 Z
Electronic contribution:     -2.841516064       0.295460827       0.174623282
Nuclear contribution   :      3.209994244      -0.540839784       0.110290788
                        -----------------------------------------
Total Dipole Moment    :      0.368478179      -0.245378957       0.284914070
                        -----------------------------------------
Magnitude (a.u.)       :      0.526462751
Magnitude (Debye)      :      1.338161968

Rotational constants in cm-1:             0.494422             0.068071             0.066833
Rotational constants in MHz :         14822.399100          2040.722450          2003.595366

                             ****ORCA TERMINATED NORMALLY****
TOTAL RUN TIME: 0 days 0 hours 0 minutes 14 seconds 639 msec
