                         Program Version 6.0.0  -   RELEASE  -
|  1> ! r2scan-3c def2/J RI DEFGRID2 scfconv6 printgap
|  2> %output
|  3>     printlevel normal
|  4> end
|  5> %cpcm
|  6>     smd true
|  7>     smdsolvent "water"
|  8> end
|  9> * xyz 0 1
| 10> C 2.4034162077 -0.338729012 -0.3740298217
| 11> C 1.3248405096 0.5251441313 0.2709683782
| 12> C 0.0067327297 -0.2396695999 0.4762057943
| 13> C -1.1726655974 0.4198044652 -0.2536250635
| 14> N -2.4444750835 -0.272954477 -0.1109959481
| 15> H 2.6283921769 -1.1997542376 0.2515698642
| 16> H 2.0731891503 -0.695403478 -1.3470593746
| 17> H 3.3178902421 0.2335581923 -0.5109880609
| 18> H 1.6924933567 0.8963655024 1.2288259223
| 19> H 1.1419001744 1.3944288466 -0.3639775107
| 20> H 0.1154815738 -1.2623323492 0.1059063794
| 21> H -0.2320198841 -0.3033591204 1.5407803841
| 22> H -0.9500324122 0.4800480919 -1.3227399128
| 23> H -1.3097073675 1.4383259809 0.1206561671
| 24> H -2.6886823597 -0.3340462293 0.8720860648
| 25> H -2.3530901922 -1.2227298919 -0.4568529736
| 26> *
| 27>
| 28>                          ****END OF INPUT****

CARTESIAN COORDINATES (ANGSTROEM)
---------------------------------
  C      2.403416   -0.338729   -0.374030
  C      1.324841    0.525144    0.270968
  C      0.006733   -0.239670    0.476206
  C     -1.172666    0.419804   -0.253625
  N     -2.444475   -0.272954   -0.110996
  H      2.628392   -1.199754    0.251570
  H      2.073189   -0.695403   -1.347059
  H      3.317890    0.233558   -0.510988
  H      1.692493    0.896366    1.228826
  H      1.141900    1.394429   -0.363978
  H      0.115482   -1.262332    0.105906
  H     -0.232020   -0.303359    1.540780
  H     -0.950032    0.480048   -1.322740
  H     -1.309707    1.438326    0.120656
  H     -2.688682   -0.334046    0.872086
  H     -2.353090   -1.222730   -0.456853

 Total Charge           Charge          ....    0
 Multiplicity           Mult            ....    1
 Number of Electrons    NEL             ....   42
 Basis Dimension        Dim             ....  155

ORBITAL ENERGIES
----------------

  NO   OCC          E(Eh)            E(eV)
   0   2.0000     -14.127121      -384.4185
   1   2.0000     -10.040553      -273.2173
   2   2.0000     -10.015597      -272.5382
   3   2.0000     -10.011347      -272.4226
   4   2.0000     -10.007376      -272.3145
   5   2.0000      -0.839601       -22.8467
   6   2.0000      -0.742790       -20.2123
   7   2.0000      -0.661388       -17.9973
   8   2.0000      -0.579396       -15.7662
   9   2.0000      -0.537232       -14.6188
  10   2.0000      -0.459093       -12.4926
  11   2.0000      -0.418688       -11.3931
  12   2.0000      -0.398532       -10.8446
  13   2.0000      -0.383538       -10.4366
  14   2.0000      -0.360523        -9.8103
  15   2.0000      -0.334608        -9.1051
  16   2.0000      -0.320743        -8.7279
  17   2.0000      -0.301604        -8.2071
  18   2.0000      -0.292522        -7.9599
  19   2.0000      -0.279056        -7.5935
  20   2.0000      -0.202425        -5.5083
  21   0.0000       0.084149         2.2898
  22   0.0000       0.104343         2.8393
  23   0.0000       0.125777         3.4226
  24   0.0000       0.138781         3.7764
  25   0.0000       0.143802         3.9130

MULLIKEN ATOMIC CHARGES
-----------------------
   0 C :   -0.517887
   1 C :   -0.260955
   2 C :   -0.229429
   3 C :   -0.304273
   4 N :   -0.629518
   5 H :    0.155780
   6 H :    0.153588
   7 H :    0.150794
   8 H :    0.148237
   9 H :    0.153824
  10 H :    0.151646
  11 H :    0.150468
  12 H :    0.157085
  13 H :    0.155248
  14 H :    0.283102
  15 H :    0.282290
Sum of atomic charges:    0.0000000

LOEWDIN ATOMIC CHARGES
----------------------
   0 C :   -0.433236
   1 C :   -0.320716
   2 C :   -0.306268
   3 C :   -0.089896
   4 N :   -0.757731
   5 H :    0.151341
   6 H :    0.151076
   7 H :    0.150418
   8 H :    0.154031
   9 H :    0.155052
  10 H :    0.156901
  11 H :    0.156701
  12 H :    0.172600
  13 H :    0.172808
  14 H :    0.243445
  15 H :    0.243475

  Mayer bond orders larger than 0.100000
B(  0-C ,  1-C ) :   0.8955 B(  0-C ,  5-H ) :   0.9786 B(  0-C ,  6-H ) :   0.9787
B(  0-C ,  7-H ) :   0.9710 B(  1-C ,  2-C ) :   0.8348 B(  1-C ,  8-H ) :   0.9691
B(  1-C ,  9-H ) :   0.9892 B(  2-C ,  3-C ) :   0.8684 B(  2-C , 10-H ) :   0.9810
B(  2-C , 11-H ) :   0.9607 B(  3-C ,  4-N ) :   0.9562 B(  3-C , 12-H ) :   0.9942
B(  3-C , 13-H ) :   0.9906 B(  4-N , 14-H ) :   0.9012 B(  4-N , 15-H ) :   0.9010

Dispersion correction           -0.003357246
FINAL SINGLE POINT ENERGY      -213.724846512187

DIPOLE MOMENT
-------------

Method             : SCF
Type of density    : Electron Density
Multiplicity       :   1
Irrep              :   0
Energy             :  -213.7320379896962663 Eh
Relativity type    :
Basis              : AO
                                X                 Y                 Z
Electronic contribution:     -2.731232815       0.191446897       0.275723458
Nuclear contribution   :      3.209994244      -0.540839784       0.110290788
                        -----------------------------------------
Total Dipole Moment    :      0.478761429      -0.349392887       0.386014246
                        -----------------------------------------
Magnitude (a.u.)       :      0.707315271
Magnitude (Debye)      :      1.797852542

Rotational constants in cm-1:             0.494422             0.068071             0.066833
Rotational constants in MHz :         14822.399100          2040.722450          2003.595366

                             ****ORCA TERMINATED NORMALLY****
TOTAL RUN TIME: 0 days 0 hours 0 minutes 18 seconds 399 msec
