                         Program Version 6.0.0  -   RELEASE  -
|  1> ! r2scan-3c def2/J RI DEFGRID2 scfconv6 printgap
|  2> %output
|  3>     printlevel normal
|  4> end
|  5> * xyz 0 1
|  6> C 2.166727082 0.5665197819 0.0556560212
|  7> C 1.2318371064 -0.3428666038 0.254598532
|  8> C 1.0304e-05 -0.4896864617 -0.5871716175
|  9> C -1.231582165 -0.342559995 0.2549174188
| 10> C -2.1669528998 0.5662421759 0.0555601383
| 11> H 3.0355751724 0.6394814178 0.6871931115
| 12> H 2.1041854674 1.2753917595 -0.7536104297
| 13> H 1.315031266 -1.0418547279 1.0768604547
| 14> H -0.0001923888 -1.4904607321 -1.0318393122
| 15> H 3.52329e-05 0.2494068783 -1.3890953893
| 16> H -1.3143719542 -1.0411081001 1.0775982769
| 17> H -3.0357270739 0.639242013 0.6872081841
| 18> H -2.1050055459 1.274562018 -0.7542255204
| 19> *
| 20>
| 21>                          ****END OF INPUT****

CARTESIAN COORDINATES (ANGSTROEM)
---------------------------------
  C      2.166727    0.566520    0.055656
  C      1.231837   -0.342867    0.254599
  C      0.000010   -0.489686   -0.587172
  C     -1.231582   -0.342560    0.254917
  C     -2.166953    0.566242    0.055560
  H      3.035575    0.639481    0.687193
  H      2.104185    1.275392   -0.753610
  H      1.315031   -1.041855    1.076860
  H     -0.000192   -1.490461   -1.031839
  H      0.000035    0.249407   -1.389095
  H     -1.314372   -1.041108    1.077598
  H     -3.035727    0.639242    0.687208
  H     -2.105006    1.274562   -0.754226

 Total Charge           Charge          ....    0
 Multiplicity           Mult            ....    1
 Number of Electrons    NEL             ....   38
 Basis Dimension        Dim             ....  135

ORBITAL ENERGIES
----------------

  NO   OCC          E(Eh)            E(eV)
   0   2.0000     -10.039374      -273.1852
   1   2.0000     -10.038057      -273.1494
   2   2.0000     -10.038035      -273.1488
   3   2.0000     -10.021369      -272.6953
   4   2.0000     -10.021366      -272.6952
   5   2.0000      -0.784017       -21.3342
   6   2.0000      -0.727509       -19.7965
   7   2.0000      -0.650922       -17.7125
   8   2.0000      -0.534651       -14.5486
   9   2.0000      -0.527078       -14.3425
  10   2.0000      -0.440983       -11.9998
  11   2.0000      -0.437123       -11.8947
  12   2.0000      -0.403126       -10.9696
  13   2.0000      -0.372822       -10.1450
  14   2.0000      -0.360939        -9.8216
  15   2.0000      -0.318670        -8.6714
  16   2.0000      -0.316956        -8.6248
  17   2.0000      -0.242632        -6.6023
  18   2.0000      -0.237453        -6.4614
  19   0.0000      -0.026524        -0.7218
  20   0.0000       0.002231         0.0607
  21   0.0000       0.103882         2.8268
  22   0.0000       0.120801         3.2872
  23   0.0000       0.121085         3.2949

MULLIKEN ATOMIC CHARGES
-----------------------
   0 C :   -0.362646
   1 C :   -0.076148
   2 C :   -0.288729
   3 C :   -0.076194
   4 C :   -0.362640
   5 H :    0.141511
   6 H :    0.139135
   7 H :    0.151575
   8 H :    0.161340
   9 H :    0.140572
  10 H :    0.151580
  11 H :    0.141511
  12 H :    0.139132
Sum of atomic charges:   -0.0000000

LOEWDIN ATOMIC CHARGES
----------------------
   0 C :   -0.312831
   1 C :   -0.185060
   2 C :   -0.287223
   3 C :   -0.185039
   4 C :   -0.312848
   5 H :    0.157548
   6 H :    0.155310
   7 H :    0.161033
   8 H :    0.170797
   9 H :    0.164426
  10 H :    0.161036
  11 H :    0.157548
  12 H :    0.155305

  Mayer bond orders larger than 0.100000
B(  0-C ,  1-C ) :   1.9490 B(  0-C ,  5-H ) :   0.9610 B(  0-C ,  6-H ) :   0.9828
B(  1-C ,  2-C ) :   0.9118 B(  1-C ,  7-H ) :   0.9259 B(  2-C ,  3-C ) :   0.9118
B(  2-C ,  8-H ) :   0.9656 B(  2-C ,  9-H ) :   1.0059 B(  3-C ,  4-C ) :   1.9490
B(  3-C , 10-H ) :   0.9259 B(  4-C , 11-H ) :   0.9610 B(  4-C , 12-H ) :   0.9828

Dispersion correction           -0.002841427
FINAL SINGLE POINT ENERGY      -195.227016328656

DIPOLE MOMENT
-------------

Method             : SCF
Type of density    : Electron Density
Multiplicity       :   1
Irrep              :   0
Energy             :  -195.2279757992890836 Eh
Relativity type    :
Basis              : AO
                                X                 Y                 Z
Electronic contribution:      0.000413679      -0.594407445       0.347814372
Nuclear contribution   :     -0.000440776       0.473458542      -0.375185082
                        -----------------------------------------
Total Dipole Moment    :     -0.000027097      -0.120948903      -0.027370710
                        -----------------------------------------
Magnitude (a.u.)       :      0.124007232
Magnitude (Debye)      :      0.315201335

Rotational constants in cm-1:             0.478538             0.087140             0.083362
Rotational constants in MHz :         14346.193818          2612.404284          2499.140852

                             ****ORCA TERMINATED NORMALLY****
TOTAL RUN TIME: 0 days 0 hours 0 minutes 12 seconds 601 msec
