                         Program Version 6.0.0  -   RELEASE  -
|  1> ! r2scan-3c def2/J RI DEFGRID2 scfconv6 printgap
|  2> %output
|  3>     printlevel normal
|  4> end
|  5> %cpcm
|  6>     smd true
|  7>     smdsolvent "water"
|  8> end
|  9> * xyz 0 1
| 10> C 2.166727082 0.5665197819 0.0556560212
| 11> C 1.2318371064 -0.3428666038 0.254598532
| 12> C 1.0304e-05 -0.4896864617 -0.5871716175
| 13> C -1.231582165 -0.342559995 0.2549174188
| 14> C -2.1669528998 0.5662421759 0.0555601383
| 15> H 3.0355751724 0.6394814178 0.6871931115
| 16> H 2.1041854674 1.2753917595 -0.7536104297
| 17> H 1.315031266 -1.0418547279 1.0768604547
| 18> H -0.0001923888 -1.4904607321 -1.0318393122
| 19> H 3.52329e-05 0.2494068783 -1.3890953893
| 20> H -1.3143719542 -1.0411081001 1.0775982769
| 21> H -3.0357270739 0.639242013 0.6872081841
| 22> H -2.1050055459 1.274562018 -0.7542255204
| 23> *
| 24>
| 25>                          ****END OF INPUT****

CARTESIAN COORDINATES (ANGSTROEM)
---------------------------------
  C      2.166727    0.566520    0.055656
  C      1.231837   -0.342867    0.254599
  C      0.000010   -0.489686   -0.587172
  C     -1.231582   -0.342560    0.254917
  C     -2.166953    0.566242    0.055560
  H      3.035575    0.639481    0.687193
  H      2.104185    1.275392   -0.753610
  H      1.315031   -1.041855    1.076860
  H     -0.000192   -1.490461   -1.031839
  H      0.000035    0.249407   -1.389095
  H     -1.314372   -1.041108    1.077598
  H     -3.035727    0.639242    0.687208
  H     -2.105006    1.274562   -0.754226

 Total Charge           Charge          ....    0
 Multiplicity           Mult            ....    1
 Number of Electrons    NEL             ....   38
 Basis Dimension        Dim             ....  135

ORBITAL ENERGIES
----------------

  NO   OCC          E(Eh)            E(eV)
   0   2.0000     -10.034510      -273.0529
   1   2.0000     -10.034502      -273.0527
   2   2.0000     -10.030983      -272.9569
   3   2.0000     -10.016858      -272.5726
   4   2.0000     -10.016856      -272.5725
   5   2.0000      -0.779529       -21.2121
   6   2.0000      -0.724768       -19.7220
   7   2.0000      -0.646091       -17.5810
   8   2.0000      -0.529287       -14.4026
   9   2.0000      -0.520065       -14.1517
  10   2.0000      -0.434895       -11.8341
  11   2.0000      -0.431831       -11.7507
  12   2.0000      -0.397534       -10.8174
  13   2.0000      -0.367687       -10.0053
  14   2.0000      -0.354399        -9.6437
  15   2.0000      -0.310737        -8.4556
  16   2.0000      -0.310196        -8.4409
  17   2.0000      -0.242171        -6.5898
  18   2.0000      -0.238047        -6.4776
  19   0.0000      -0.025589        -0.6963
  20   0.0000       0.003113         0.0847
  21   0.0000       0.110444         3.0053
  22   0.0000       0.127520         3.4700
  23   0.0000       0.132214         3.5977

MULLIKEN ATOMIC CHARGES
-----------------------
   0 C :   -0.426934
   1 C :   -0.119707
   2 C :   -0.283452
   3 C :   -0.119789
   4 C :   -0.426906
   5 H :    0.167209
   6 H :    0.167206
   7 H :    0.182320
   8 H :    0.179549
   9 H :    0.163771
  10 H :    0.182323
  11 H :    0.167208
  12 H :    0.167202
Sum of atomic charges:   -0.0000000

LOEWDIN ATOMIC CHARGES
----------------------
   0 C :   -0.335493
   1 C :   -0.191125
   2 C :   -0.290937
   3 C :   -0.191113
   4 C :   -0.335504
   5 H :    0.163770
   6 H :    0.162830
   7 H :    0.170337
   8 H :    0.179587
   9 H :    0.170712
  10 H :    0.170339
  11 H :    0.163771
  12 H :    0.162825

  Mayer bond orders larger than 0.100000
B(  0-C ,  1-C ) :   1.9138 B(  0-C ,  5-H ) :   0.9614 B(  0-C ,  6-H ) :   0.9766
B(  1-C ,  2-C ) :   0.8998 B(  1-C ,  7-H ) :   0.9261 B(  2-C ,  3-C ) :   0.8999
B(  2-C ,  8-H ) :   0.9536 B(  2-C ,  9-H ) :   1.0059 B(  3-C ,  4-C ) :   1.9138
B(  3-C , 10-H ) :   0.9261 B(  4-C , 11-H ) :   0.9614 B(  4-C , 12-H ) :   0.9766

Dispersion correction           -0.002841427
FINAL SINGLE POINT ENERGY      -195.226650366445

DIPOLE MOMENT
-------------

Method             : SCF
Type of density    : Electron Density
Multiplicity       :   1
Irrep              :   0
Energy             :  -195.2276098370782620 Eh
Relativity type    :
Basis              : AO
                                X                 Y                 Z
Electronic contribution:      0.000386285      -0.683928860       0.317131969
Nuclear contribution   :     -0.000440776       0.473458542      -0.375185082
                        -----------------------------------------
Total Dipole Moment    :     -0.000054491      -0.210470318      -0.058053114
                        -----------------------------------------
Magnitude (a.u.)       :      0.218329846
Magnitude (Debye)      :      0.554950366

Rotational constants in cm-1:             0.478538             0.087140             0.083362
Rotational constants in MHz :         14346.193818          2612.404284          2499.140852

                             ****ORCA TERMINATED NORMALLY****
TOTAL RUN TIME: 0 days 0 hours 0 minutes 14 seconds 986 msec
