                         Program Version 6.0.0  -   RELEASE  -
|  1> ! pbe def2-sv(p) def2/J RI DEFGRID1 loosescf d4 GCP(DFT/SV(P)) printgap
|  2> %output
|  3>     printlevel normal
|  4> end
|  5> * xyz 0 1
|  6> C -1.7955835299 -1.1920223873 -0.582791786
|  7> C -2.3666325263 -0.0617603884 0.264518968
|  8> C -1.3250741766 0.6148033554 1.155403042
|  9> C -0.2604049452 1.3849124759 0.3666433657
| 10> C 0.7802187956 0.5130215106 -0.2856779629
| 11> O 1.1774026531 0.6565118305 -1.42598866
| 12> O 1.2533387278 -0.4099900394 0.5415388733
| 13> C 2.2735615957 -1.2929720404 0.0712491046
| 14> H -2.588661859 -1.6837829514 -1.1408462292
| 15> H -1.0678391528 -0.8144601589 -1.2982833558
| 16> H -1.3081958992 -1.9322233068 0.0480134749
| 17> H -2.8211678439 0.685163889 -0.3896911055
| 18> H -3.153786239 -0.4653820336 0.9044622089
| 19> H -0.8349555535 -0.1308914561 1.7821408124
| 20> H -1.8375832322 1.3231291648 1.8077480672
| 21> H 0.2820981409 2.0405509531 1.051547737
| 22> H -0.7173318834 1.9999716935 -0.4093880613
| 23> H 2.2284094466 -1.3704449887 -1.0157127939
| 24> H 2.0899793883 -2.2562875817 0.5395576686
| 25> H 3.2464539273 -0.9032476403 0.370323933
| 26> *
| 27>
| 28>                          ****END OF INPUT****

CARTESIAN COORDINATES (ANGSTROEM)
---------------------------------
  C     -1.795584   -1.192022   -0.582792
  C     -2.366633   -0.061760    0.264519
  C     -1.325074    0.614803    1.155403
  C     -0.260405    1.384912    0.366643
  C      0.780219    0.513022   -0.285678
  O      1.177403    0.656512   -1.425989
  O      1.253339   -0.409990    0.541539
  C      2.273562   -1.292972    0.071249
  H     -2.588662   -1.683783   -1.140846
  H     -1.067839   -0.814460   -1.298283
  H     -1.308196   -1.932223    0.048013
  H     -2.821168    0.685164   -0.389691
  H     -3.153786   -0.465382    0.904462
  H     -0.834956   -0.130891    1.782141
  H     -1.837583    1.323129    1.807748
  H      0.282098    2.040551    1.051548
  H     -0.717332    1.999972   -0.409388
  H      2.228409   -1.370445   -1.015713
  H      2.089979   -2.256288    0.539558
  H      3.246454   -0.903248    0.370324

 Total Charge           Charge          ....    0
 Multiplicity           Mult            ....    1
 Number of Electrons    NEL             ....   64
 Basis Dimension        Dim             ....  136

ORBITAL ENERGIES
----------------

  NO   OCC          E(Eh)            E(eV)
   0   2.0000     -18.800990      -511.6009
   1   2.0000     -18.729552      -509.6570
   2   2.0000     -10.005959      -272.2760
   3   2.0000      -9.941666      -270.5265
   4   2.0000      -9.897777      -269.3322
   5   2.0000      -9.889701      -269.1125
   6   2.0000      -9.885574      -269.0002
   7   2.0000      -9.873291      -268.6659
   8   2.0000      -1.006108       -27.3776
   9   2.0000      -0.907000       -24.6807
  10   2.0000      -0.733224       -19.9520
  11   2.0000      -0.682658       -18.5761
  12   2.0000      -0.644666       -17.5423
  13   2.0000      -0.587076       -15.9752
  14   2.0000      -0.517303       -14.0765
  15   2.0000      -0.507160       -13.8005
  16   2.0000      -0.451378       -12.2826
  17   2.0000      -0.443531       -12.0691
  18   2.0000      -0.414186       -11.2706
  19   2.0000      -0.408217       -11.1082
  20   2.0000      -0.391019       -10.6402
  21   2.0000      -0.374499       -10.1906
  22   2.0000      -0.361964        -9.8495
  23   2.0000      -0.354102        -9.6356
  24   2.0000      -0.338384        -9.2079
  25   2.0000      -0.324565        -8.8319
  26   2.0000      -0.304308        -8.2806
  27   2.0000      -0.295152        -8.0315
  28   2.0000      -0.286077        -7.7846
  29   2.0000      -0.281244        -7.6530
  30   2.0000      -0.256234        -6.9725
  31   2.0000      -0.214139        -5.8270
  32   0.0000      -0.019199        -0.5224
  33   0.0000       0.034200         0.9306
  34   0.0000       0.052950         1.4408
  35   0.0000       0.073322         1.9952
  36   0.0000       0.078521         2.1367

MULLIKEN ATOMIC CHARGES
-----------------------
   0 C :   -0.297610
   1 C :   -0.177400
   2 C :   -0.179208
   3 C :   -0.123922
   4 C :    0.076577
   5 O :   -0.204234
   6 O :   -0.244075
   7 C :   -0.122396
   8 H :    0.103567
   9 H :    0.131679
  10 H :    0.093249
  11 H :    0.084525
  12 H :    0.087258
  13 H :    0.100685
  14 H :    0.085426
  15 H :    0.114789
  16 H :    0.098629
  17 H :    0.131025
  18 H :    0.120804
  19 H :    0.120633
Sum of atomic charges:   -0.0000000

LOEWDIN ATOMIC CHARGES
----------------------
   0 C :   -0.350201
   1 C :   -0.232178
   2 C :   -0.227406
   3 C :   -0.241076
   4 C :    0.030613
   5 O :   -0.173156
   6 O :   -0.072110
   7 C :   -0.206551
   8 H :    0.120504
   9 H :    0.123659
  10 H :    0.116329
  11 H :    0.115199
  12 H :    0.116452
  13 H :    0.120018
  14 H :    0.118621
  15 H :    0.144385
  16 H :    0.133759
  17 H :    0.123712
  18 H :    0.119775
  19 H :    0.119651

  Mayer bond orders larger than 0.100000
B(  0-C ,  1-C ) :   1.1772 B(  0-C ,  8-H ) :   0.9476 B(  0-C ,  9-H ) :   0.9289
B(  0-C , 10-H ) :   0.9508 B(  1-C ,  2-C ) :   1.1242 B(  1-C , 11-H ) :   0.9236
B(  1-C , 12-H ) :   0.9247 B(  2-C ,  3-C ) :   1.1035 B(  2-C , 13-H ) :   0.9169
B(  2-C , 14-H ) :   0.9181 B(  3-C ,  4-C ) :   1.0468 B(  3-C , 15-H ) :   0.8891
B(  3-C , 16-H ) :   0.9091 B(  4-C ,  5-O ) :   2.0529 B(  4-C ,  6-O ) :   1.1898
B(  6-O ,  7-C ) :   0.9393 B(  7-C , 17-H ) :   0.9342 B(  7-C , 18-H ) :   0.9596
B(  7-C , 19-H ) :   0.9600

Dispersion correction           -0.016332145
FINAL SINGLE POINT ENERGY      -385.450366864791

DIPOLE MOMENT
-------------

Method             : SCF
Type of density    : Electron Density
Multiplicity       :   1
Irrep              :   0
Energy             :  -385.5257994242673476 Eh
Relativity type    :
Basis              : AO
                                X                 Y                 Z
Electronic contribution:      6.023625041       2.939256763      -1.404495388
Nuclear contribution   :     -6.045697952      -3.287343641       2.097640552
                        -----------------------------------------
Total Dipole Moment    :     -0.022072911      -0.348086878       0.693145164
                        -----------------------------------------
Magnitude (a.u.)       :      0.775952258
Magnitude (Debye)      :      1.972313898

Rotational constants in cm-1:             0.098812             0.045233             0.041559
Rotational constants in MHz :          2962.313996          1356.063721          1245.914183

                             ****ORCA TERMINATED NORMALLY****
TOTAL RUN TIME: 0 days 0 hours 0 minutes 11 seconds 126 msec
