                         Program Version 6.0.0  -   RELEASE  -
|  1> ! r2scan-3c def2/J RI DEFGRID2 scfconv6 printgap
|  2> %output
|  3>     printlevel normal
|  4> end
|  5> * xyz 0 1
|  6> C -1.7293569211 -1.3495781237 0.3578869767
|  7> C -2.3770841529 -0.0202818545 -0.0099386579
|  8> C -1.4357109365 0.9285282026 -0.7514203237
|  9> C -0.2752231333 1.4309457876 0.1142297732
| 10> C 0.8122062513 0.4145215043 0.3401512563
| 11> O 1.3487045923 0.2059733291 1.4109989279
| 12> O 1.1703782778 -0.2052256878 -0.7781562643
| 13> C 2.2161452147 -1.1733573814 -0.689583921
| 14> H -0.919467206 -1.2049868481 1.0703769928
| 15> H -2.4604560011 -2.0128280968 0.8139767957
| 16> H -1.3282674652 -1.8360425187 -0.528757746
| 17> H -3.2401818654 -0.2149896675 -0.6496878244
| 18> H -2.7396330602 0.4674422857 0.8974308044
| 19> H -2.009324951 1.7960334807 -1.0805769882
| 20> H -1.0327709867 0.4321906202 -1.6348485316
| 21> H -0.6303404362 1.7660101486 1.0893987812
| 22> H 0.2008979427 2.2760891044 -0.3882066121
| 23> H 1.8857138192 -2.0246231102 -0.0926321687
| 24> H 3.0964359673 -0.7325876844 -0.2199038516
| 25> H 2.4258801257 -1.4737257625 -1.7113139033
| 26> *
| 27>
| 28>                          ****END OF INPUT****

CARTESIAN COORDINATES (ANGSTROEM)
---------------------------------
  C     -1.729357   -1.349578    0.357887
  C     -2.377084   -0.020282   -0.009939
  C     -1.435711    0.928528   -0.751420
  C     -0.275223    1.430946    0.114230
  C      0.812206    0.414522    0.340151
  O      1.348705    0.205973    1.410999
  O      1.170378   -0.205226   -0.778156
  C      2.216145   -1.173357   -0.689584
  H     -0.919467   -1.204987    1.070377
  H     -2.460456   -2.012828    0.813977
  H     -1.328267   -1.836043   -0.528758
  H     -3.240182   -0.214990   -0.649688
  H     -2.739633    0.467442    0.897431
  H     -2.009325    1.796033   -1.080577
  H     -1.032771    0.432191   -1.634849
  H     -0.630340    1.766010    1.089399
  H      0.200898    2.276089   -0.388207
  H      1.885714   -2.024623   -0.092632
  H      3.096436   -0.732588   -0.219904
  H      2.425880   -1.473726   -1.711314

 Total Charge           Charge          ....    0
 Multiplicity           Mult            ....    1
 Number of Electrons    NEL             ....   64
 Basis Dimension        Dim             ....  222

ORBITAL ENERGIES
----------------

  NO   OCC          E(Eh)            E(eV)
   0   2.0000     -18.999667      -517.0072
   1   2.0000     -18.927312      -515.0384
   2   2.0000     -10.152705      -276.2691
   3   2.0000     -10.087395      -274.4920
   4   2.0000     -10.043093      -273.2865
   5   2.0000     -10.033272      -273.0192
   6   2.0000     -10.028289      -272.8836
   7   2.0000     -10.015815      -272.5442
   8   2.0000      -1.074140       -29.2288
   9   2.0000      -0.974371       -26.5140
  10   2.0000      -0.780214       -21.2307
  11   2.0000      -0.724319       -19.7097
  12   2.0000      -0.684450       -18.6248
  13   2.0000      -0.625855       -17.0304
  14   2.0000      -0.550330       -14.9753
  15   2.0000      -0.534055       -14.5324
  16   2.0000      -0.471968       -12.8429
  17   2.0000      -0.463056       -12.6004
  18   2.0000      -0.436326       -11.8730
  19   2.0000      -0.429540       -11.6884
  20   2.0000      -0.411112       -11.1869
  21   2.0000      -0.390914       -10.6373
  22   2.0000      -0.376520       -10.2456
  23   2.0000      -0.370843       -10.0912
  24   2.0000      -0.351061        -9.5528
  25   2.0000      -0.338448        -9.2096
  26   2.0000      -0.325044        -8.8449
  27   2.0000      -0.308043        -8.3823
  28   2.0000      -0.299578        -8.1519
  29   2.0000      -0.292840        -7.9686
  30   2.0000      -0.273528        -7.4431
  31   2.0000      -0.232325        -6.3219
  32   0.0000      -0.015245        -0.4148
  33   0.0000       0.063741         1.7345
  34   0.0000       0.089386         2.4323
  35   0.0000       0.099954         2.7199
  36   0.0000       0.121144         3.2965

MULLIKEN ATOMIC CHARGES
-----------------------
   0 C :   -0.487221
   1 C :   -0.263361
   2 C :   -0.233144
   3 C :   -0.346794
   4 C :    0.331326
   5 O :   -0.416221
   6 O :   -0.169924
   7 C :   -0.290330
   8 H :    0.168675
   9 H :    0.148259
  10 H :    0.151436
  11 H :    0.144232
  12 H :    0.139791
  13 H :    0.145002
  14 H :    0.159595
  15 H :    0.176625
  16 H :    0.166831
  17 H :    0.159994
  18 H :    0.165289
  19 H :    0.149939
Sum of atomic charges:   -0.0000000

LOEWDIN ATOMIC CHARGES
----------------------
   0 C :   -0.418000
   1 C :   -0.309220
   2 C :   -0.290461
   3 C :   -0.227313
   4 C :    0.339794
   5 O :   -0.433008
   6 O :   -0.613378
   7 C :   -0.044598
   8 H :    0.165371
   9 H :    0.150861
  10 H :    0.152467
  11 H :    0.153001
  12 H :    0.152877
  13 H :    0.156231
  14 H :    0.170469
  15 H :    0.179989
  16 H :    0.183893
  17 H :    0.175785
  18 H :    0.179487
  19 H :    0.175754

  Mayer bond orders larger than 0.100000
B(  0-C ,  1-C ) :   0.8895 B(  0-C ,  8-H ) :   0.9621 B(  0-C ,  9-H ) :   0.9647
B(  0-C , 10-H ) :   0.9807 B(  1-C ,  2-C ) :   0.9273 B(  1-C , 11-H ) :   0.9590
B(  1-C , 12-H ) :   0.9904 B(  2-C ,  3-C ) :   0.8587 B(  2-C , 13-H ) :   0.9616
B(  2-C , 14-H ) :   0.9755 B(  3-C ,  4-C ) :   0.9684 B(  3-C , 15-H ) :   1.0088
B(  3-C , 16-H ) :   0.9258 B(  4-C ,  5-O ) :   1.8334 B(  4-C ,  6-O ) :   1.0345
B(  6-O ,  7-C ) :   0.8516 B(  7-C , 17-H ) :   0.9611 B(  7-C , 18-H ) :   0.9634
B(  7-C , 19-H ) :   0.9697

Dispersion correction           -0.005578882
FINAL SINGLE POINT ENERGY      -386.229557946444

DIPOLE MOMENT
-------------

Method             : SCF
Type of density    : Electron Density
Multiplicity       :   1
Irrep              :   0
Energy             :  -386.2360968745504692 Eh
Relativity type    :
Basis              : AO
                                X                 Y                 Z
Electronic contribution:      6.069667831       2.505886398       1.451436831
Nuclear contribution   :     -6.296692330      -2.591222269      -2.274812081
                        -----------------------------------------
Total Dipole Moment    :     -0.227024499      -0.085335871      -0.823375250
                        -----------------------------------------
Magnitude (a.u.)       :      0.858352571
Magnitude (Debye)      :      2.181758848

Rotational constants in cm-1:             0.099087             0.045594             0.041632
Rotational constants in MHz :          2970.550315          1366.884959          1248.100852

                             ****ORCA TERMINATED NORMALLY****
TOTAL RUN TIME: 0 days 0 hours 0 minutes 26 seconds 587 msec
