                         Program Version 6.0.0  -   RELEASE  -
|  1> ! r2scan-3c def2/J RI DEFGRID2 scfconv6 printgap
|  2> %output
|  3>     printlevel normal
|  4> end
|  5> %cpcm
|  6>     smd true
|  7>     smdsolvent "water"
|  8> end
|  9> * xyz 0 1
| 10> C -1.7293569211 -1.3495781237 0.3578869767
| 11> C -2.3770841529 -0.0202818545 -0.0099386579
| 12> C -1.4357109365 0.9285282026 -0.7514203237
| 13> C -0.2752231333 1.4309457876 0.1142297732
| 14> C 0.8122062513 0.4145215043 0.3401512563
| 15> O 1.3487045923 0.2059733291 1.4109989279
| 16> O 1.1703782778 -0.2052256878 -0.7781562643
| 17> C 2.2161452147 -1.1733573814 -0.689583921
| 18> H -0.919467206 -1.2049868481 1.0703769928
| 19> H -2.4604560011 -2.0128280968 0.8139767957
| 20> H -1.3282674652 -1.8360425187 -0.528757746
| 21> H -3.2401818654 -0.2149896675 -0.6496878244
| 22> H -2.7396330602 0.4674422857 0.8974308044
| 23> H -2.009324951 1.7960334807 -1.0805769882
| 24> H -1.0327709867 0.4321906202 -1.6348485316
| 25> H -0.6303404362 1.7660101486 1.0893987812
| 26> H 0.2008979427 2.2760891044 -0.3882066121
| 27> H 1.8857138192 -2.0246231102 -0.0926321687
| 28> H 3.0964359673 -0.7325876844 -0.2199038516
| 29> H 2.4258801257 -1.4737257625 -1.7113139033
| 30> *
| 31>
| 32>                          ****END OF INPUT****

CARTESIAN COORDINATES (ANGSTROEM)
---------------------------------
  C     -1.729357   -1.349578    0.357887
  C     -2.377084   -0.020282   -0.009939
  C     -1.435711    0.928528   -0.751420
  C     -0.275223    1.430946    0.114230
  C      0.812206    0.414522    0.340151
  O      1.348705    0.205973    1.410999
  O      1.170378   -0.205226   -0.778156
  C      2.216145   -1.173357   -0.689584
  H     -0.919467   -1.204987    1.070377
  H     -2.460456   -2.012828    0.813977
  H     -1.328267   -1.836043   -0.528758
  H     -3.240182   -0.214990   -0.649688
  H     -2.739633    0.467442    0.897431
  H     -2.009325    1.796033   -1.080577
  H     -1.032771    0.432191   -1.634849
  H     -0.630340    1.766010    1.089399
  H      0.200898    2.276089   -0.388207
  H      1.885714   -2.024623   -0.092632
  H      3.096436   -0.732588   -0.219904
  H      2.425880   -1.473726   -1.711314

 Total Charge           Charge          ....    0
 Multiplicity           Mult            ....    1
 Number of Electrons    NEL             ....   64
 Basis Dimension        Dim             ....  222

ORBITAL ENERGIES
----------------

  NO   OCC          E(Eh)            E(eV)
   0   2.0000     -19.004019      -517.1256
   1   2.0000     -18.942529      -515.4524
   2   2.0000     -10.162442      -276.5341
   3   2.0000     -10.076784      -274.2032
   4   2.0000     -10.036516      -273.1075
   5   2.0000     -10.024447      -272.7791
   6   2.0000     -10.018695      -272.6226
   7   2.0000     -10.009243      -272.3654
   8   2.0000      -1.080114       -29.3914
   9   2.0000      -0.987512       -26.8716
  10   2.0000      -0.773511       -21.0483
  11   2.0000      -0.719015       -19.5654
  12   2.0000      -0.677647       -18.4397
  13   2.0000      -0.619356       -16.8535
  14   2.0000      -0.544151       -14.8071
  15   2.0000      -0.530312       -14.4305
  16   2.0000      -0.470016       -12.7898
  17   2.0000      -0.461874       -12.5682
  18   2.0000      -0.449969       -12.2443
  19   2.0000      -0.421860       -11.4794
  20   2.0000      -0.405047       -11.0219
  21   2.0000      -0.383790       -10.4435
  22   2.0000      -0.372706       -10.1419
  23   2.0000      -0.367846       -10.0096
  24   2.0000      -0.349209        -9.5025
  25   2.0000      -0.331387        -9.0175
  26   2.0000      -0.325277        -8.8512
  27   2.0000      -0.301663        -8.2087
  28   2.0000      -0.292616        -7.9625
  29   2.0000      -0.285828        -7.7778
  30   2.0000      -0.279501        -7.6056
  31   2.0000      -0.247483        -6.7343
  32   0.0000      -0.022623        -0.6156
  33   0.0000       0.069534         1.8921
  34   0.0000       0.096964         2.6385
  35   0.0000       0.110119         2.9965
  36   0.0000       0.129122         3.5136

MULLIKEN ATOMIC CHARGES
-----------------------
   0 C :   -0.518517
   1 C :   -0.272950
   2 C :   -0.241628
   3 C :   -0.365881
   4 C :    0.375761
   5 O :   -0.504482
   6 O :   -0.184508
   7 C :   -0.324958
   8 H :    0.162101
   9 H :    0.160406
  10 H :    0.163921
  11 H :    0.155325
  12 H :    0.151478
  13 H :    0.161813
  14 H :    0.161445
  15 H :    0.186019
  16 H :    0.199299
  17 H :    0.179925
  18 H :    0.176978
  19 H :    0.178452
Sum of atomic charges:   -0.0000000

LOEWDIN ATOMIC CHARGES
----------------------
   0 C :   -0.424095
   1 C :   -0.310573
   2 C :   -0.287873
   3 C :   -0.225490
   4 C :    0.348933
   5 O :   -0.496368
   6 O :   -0.613792
   7 C :   -0.042400
   8 H :    0.161985
   9 H :    0.153989
  10 H :    0.155700
  11 H :    0.156478
  12 H :    0.156279
  13 H :    0.162779
  14 H :    0.170445
  15 H :    0.184021
  16 H :    0.196400
  17 H :    0.182158
  18 H :    0.183231
  19 H :    0.188193

  Mayer bond orders larger than 0.100000
B(  0-C ,  1-C ) :   0.8777 B(  0-C ,  8-H ) :   0.9634 B(  0-C ,  9-H ) :   0.9625
B(  0-C , 10-H ) :   0.9777 B(  1-C ,  2-C ) :   0.9220 B(  1-C , 11-H ) :   0.9584
B(  1-C , 12-H ) :   0.9903 B(  2-C ,  3-C ) :   0.8447 B(  2-C , 13-H ) :   0.9587
B(  2-C , 14-H ) :   0.9760 B(  3-C ,  4-C ) :   0.9704 B(  3-C , 15-H ) :   1.0045
B(  3-C , 16-H ) :   0.9163 B(  4-C ,  5-O ) :   1.7608 B(  4-C ,  6-O ) :   1.0621
B(  6-O ,  7-C ) :   0.8319 B(  7-C , 17-H ) :   0.9551 B(  7-C , 18-H ) :   0.9589
B(  7-C , 19-H ) :   0.9598

Dispersion correction           -0.005578882
FINAL SINGLE POINT ENERGY      -386.234922563514

DIPOLE MOMENT
-------------

Method             : SCF
Type of density    : Electron Density
Multiplicity       :   1
Irrep              :   0
Energy             :  -386.2414614916208961 Eh
Relativity type    :
Basis              : AO
                                X                 Y                 Z
Electronic contribution:      5.938032123       2.536264773       1.104187843
Nuclear contribution   :     -6.296692330      -2.591222269      -2.274812081
                        -----------------------------------------
Total Dipole Moment    :     -0.358660207      -0.054957496      -1.170624237
                        -----------------------------------------
Magnitude (a.u.)       :      1.225568674
Magnitude (Debye)      :      3.115148005

Rotational constants in cm-1:             0.099087             0.045594             0.041632
Rotational constants in MHz :          2970.550315          1366.884959          1248.100852

                             ****ORCA TERMINATED NORMALLY****
TOTAL RUN TIME: 0 days 0 hours 0 minutes 34 seconds 577 msec
