                         Program Version 6.0.0  -   RELEASE  -
|  1> ! r2scan-3c def2/J RI DEFGRID2 scfconv6 printgap
|  2> %output
|  3>     printlevel normal
|  4> end
|  5> * xyz 0 1
|  6> C -3.5211836201 -0.6818708592 0.4633467784
|  7> C -2.1647955244 0.0028989402 0.5708793259
|  8> C -1.2266523298 -0.4442848284 -0.5603906468
|  9> C 0.0948268411 0.260597559 -0.4155752576
| 10> O 0.3921959905 1.2979320513 -0.9714545826
| 11> O 0.8874117636 -0.3687031622 0.4424405604
| 12> C 2.1775050202 0.1965016382 0.7290399046
| 13> C 3.2190149822 -0.2819245168 -0.2709328389
| 14> H -4.1716422175 -0.3515243539 1.2684824089
| 15> H -3.995429848 -0.4410678612 -0.4845158089
| 16> H -3.4086447002 -1.7607905962 0.5295639503
| 17> H -1.7034417653 -0.239293837 1.5300989825
| 18> H -2.2912942352 1.0864574425 0.5197491001
| 19> H -1.6596678955 -0.1824638491 -1.5253695412
| 20> H -1.0658632393 -1.5197404717 -0.4975492264
| 21> H 2.0936274796 1.2872789951 0.7061919564
| 22> H 2.409804901 -0.1457630468 1.7380018389
| 23> H 2.9712319256 0.0777195737 -1.267181843
| 24> H 4.192790018 0.1046808033 0.0112386985
| 25> H 3.2532873883 -1.3679096866 -0.2846191177
| 26> *
| 27>
| 28>                          ****END OF INPUT****

CARTESIAN COORDINATES (ANGSTROEM)
---------------------------------
  C     -3.521184   -0.681871    0.463347
  C     -2.164796    0.002899    0.570879
  C     -1.226652   -0.444285   -0.560391
  C      0.094827    0.260598   -0.415575
  O      0.392196    1.297932   -0.971455
  O      0.887412   -0.368703    0.442441
  C      2.177505    0.196502    0.729040
  C      3.219015   -0.281925   -0.270933
  H     -4.171642   -0.351524    1.268482
  H     -3.995430   -0.441068   -0.484516
  H     -3.408645   -1.760791    0.529564
  H     -1.703442   -0.239294    1.530099
  H     -2.291294    1.086457    0.519749
  H     -1.659668   -0.182464   -1.525370
  H     -1.065863   -1.519740   -0.497549
  H      2.093627    1.287279    0.706192
  H      2.409805   -0.145763    1.738002
  H      2.971232    0.077720   -1.267182
  H      4.192790    0.104681    0.011239
  H      3.253287   -1.367910   -0.284619

 Total Charge           Charge          ....    0
 Multiplicity           Mult            ....    1
 Number of Electrons    NEL             ....   64
 Basis Dimension        Dim             ....  222

ORBITAL ENERGIES
----------------

  NO   OCC          E(Eh)            E(eV)
   0   2.0000     -18.995172      -516.8849
   1   2.0000     -18.925879      -514.9994
   2   2.0000     -10.149993      -276.1953
   3   2.0000     -10.090376      -274.5731
   4   2.0000     -10.040033      -273.2032
   5   2.0000     -10.038590      -273.1639
   6   2.0000     -10.028025      -272.8764
   7   2.0000     -10.023509      -272.7536
   8   2.0000      -1.070028       -29.1170
   9   2.0000      -0.973448       -26.4889
  10   2.0000      -0.775197       -21.0942
  11   2.0000      -0.739008       -20.1094
  12   2.0000      -0.680707       -18.5230
  13   2.0000      -0.621320       -16.9070
  14   2.0000      -0.568046       -15.4573
  15   2.0000      -0.523359       -14.2413
  16   2.0000      -0.472469       -12.8565
  17   2.0000      -0.454677       -12.3724
  18   2.0000      -0.437095       -11.8940
  19   2.0000      -0.424088       -11.5400
  20   2.0000      -0.410351       -11.1662
  21   2.0000      -0.390563       -10.6278
  22   2.0000      -0.376249       -10.2383
  23   2.0000      -0.361995        -9.8504
  24   2.0000      -0.354852        -9.6560
  25   2.0000      -0.339922        -9.2497
  26   2.0000      -0.328426        -8.9369
  27   2.0000      -0.314582        -8.5602
  28   2.0000      -0.310051        -8.4369
  29   2.0000      -0.302788        -8.2393
  30   2.0000      -0.269071        -7.3218
  31   2.0000      -0.232094        -6.3156
  32   0.0000      -0.013511        -0.3676
  33   0.0000       0.076945         2.0938
  34   0.0000       0.091179         2.4811
  35   0.0000       0.105441         2.8692
  36   0.0000       0.121791         3.3141

MULLIKEN ATOMIC CHARGES
-----------------------
   0 C :   -0.474436
   1 C :   -0.231658
   2 C :   -0.347153
   3 C :    0.428850
   4 O :   -0.432619
   5 O :   -0.185407
   6 C :   -0.138140
   7 C :   -0.466294
   8 H :    0.150691
   9 H :    0.146393
  10 H :    0.144897
  11 H :    0.149226
  12 H :    0.153324
  13 H :    0.162059
  14 H :    0.155811
  15 H :    0.168065
  16 H :    0.146988
  17 H :    0.172073
  18 H :    0.146384
  19 H :    0.150947
Sum of atomic charges:   -0.0000000

LOEWDIN ATOMIC CHARGES
----------------------
   0 C :   -0.419571
   1 C :   -0.287243
   2 C :   -0.229450
   3 C :    0.356537
   4 O :   -0.433285
   5 O :   -0.597690
   6 C :    0.027117
   7 C :   -0.390257
   8 H :    0.153107
   9 H :    0.151458
  10 H :    0.150622
  11 H :    0.158954
  12 H :    0.160381
  13 H :    0.176720
  14 H :    0.176195
  15 H :    0.188280
  16 H :    0.177149
  17 H :    0.165149
  18 H :    0.158935
  19 H :    0.156890

  Mayer bond orders larger than 0.100000
B(  0-C ,  1-C ) :   0.8945 B(  0-C ,  8-H ) :   0.9717 B(  0-C ,  9-H ) :   0.9839
B(  0-C , 10-H ) :   0.9856 B(  1-C ,  2-C ) :   0.9263 B(  1-C , 11-H ) :   0.9629
B(  1-C , 12-H ) :   0.9581 B(  2-C ,  3-C ) :   0.9593 B(  2-C , 13-H ) :   0.9789
B(  2-C , 14-H ) :   0.9807 B(  3-C ,  4-O ) :   1.8426 B(  3-C ,  5-O ) :   1.0290
B(  5-O ,  6-C ) :   0.8189 B(  6-C ,  7-C ) :   0.9382 B(  6-C , 15-H ) :   0.9663
B(  6-C , 16-H ) :   0.9609 B(  7-C , 17-H ) :   0.9712 B(  7-C , 18-H ) :   0.9657
B(  7-C , 19-H ) :   0.9736

Dispersion correction           -0.004963331
FINAL SINGLE POINT ENERGY      -386.235683355841

DIPOLE MOMENT
-------------

Method             : SCF
Type of density    : Electron Density
Multiplicity       :   1
Irrep              :   0
Energy             :  -386.2423731272016312 Eh
Relativity type    :
Basis              : AO
                                X                 Y                 Z
Electronic contribution:      3.207999713       2.609552133      -1.575509423
Nuclear contribution   :     -3.147565584      -3.225163794       2.097487511
                        -----------------------------------------
Total Dipole Moment    :      0.060434129      -0.615611661       0.521978088
                        -----------------------------------------
Magnitude (a.u.)       :      0.809376998
Magnitude (Debye)      :      2.057272835

Rotational constants in cm-1:             0.176071             0.030199             0.028252
Rotational constants in MHz :          5278.472986           905.344593           846.987095

                             ****ORCA TERMINATED NORMALLY****
TOTAL RUN TIME: 0 days 0 hours 0 minutes 30 seconds 966 msec
