                         Program Version 6.0.0  -   RELEASE  -
|  1> ! r2scan-3c def2/J RI DEFGRID2 scfconv6 printgap
|  2> %output
|  3>     printlevel normal
|  4> end
|  5> %cpcm
|  6>     smd true
|  7>     smdsolvent "water"
|  8> end
|  9> * xyz 0 1
| 10> C -3.5211836201 -0.6818708592 0.4633467784
| 11> C -2.1647955244 0.0028989402 0.5708793259
| 12> C -1.2266523298 -0.4442848284 -0.5603906468
| 13> C 0.0948268411 0.260597559 -0.4155752576
| 14> O 0.3921959905 1.2979320513 -0.9714545826
| 15> O 0.8874117636 -0.3687031622 0.4424405604
| 16> C 2.1775050202 0.1965016382 0.7290399046
| 17> C 3.2190149822 -0.2819245168 -0.2709328389
| 18> H -4.1716422175 -0.3515243539 1.2684824089
| 19> H -3.995429848 -0.4410678612 -0.4845158089
| 20> H -3.4086447002 -1.7607905962 0.5295639503
| 21> H -1.7034417653 -0.239293837 1.5300989825
| 22> H -2.2912942352 1.0864574425 0.5197491001
| 23> H -1.6596678955 -0.1824638491 -1.5253695412
| 24> H -1.0658632393 -1.5197404717 -0.4975492264
| 25> H 2.0936274796 1.2872789951 0.7061919564
| 26> H 2.409804901 -0.1457630468 1.7380018389
| 27> H 2.9712319256 0.0777195737 -1.267181843
| 28> H 4.192790018 0.1046808033 0.0112386985
| 29> H 3.2532873883 -1.3679096866 -0.2846191177
| 30> *
| 31>
| 32>                          ****END OF INPUT****

CARTESIAN COORDINATES (ANGSTROEM)
---------------------------------
  C     -3.521184   -0.681871    0.463347
  C     -2.164796    0.002899    0.570879
  C     -1.226652   -0.444285   -0.560391
  C      0.094827    0.260598   -0.415575
  O      0.392196    1.297932   -0.971455
  O      0.887412   -0.368703    0.442441
  C      2.177505    0.196502    0.729040
  C      3.219015   -0.281925   -0.270933
  H     -4.171642   -0.351524    1.268482
  H     -3.995430   -0.441068   -0.484516
  H     -3.408645   -1.760791    0.529564
  H     -1.703442   -0.239294    1.530099
  H     -2.291294    1.086457    0.519749
  H     -1.659668   -0.182464   -1.525370
  H     -1.065863   -1.519740   -0.497549
  H      2.093627    1.287279    0.706192
  H      2.409805   -0.145763    1.738002
  H      2.971232    0.077720   -1.267182
  H      4.192790    0.104681    0.011239
  H      3.253287   -1.367910   -0.284619

 Total Charge           Charge          ....    0
 Multiplicity           Mult            ....    1
 Number of Electrons    NEL             ....   64
 Basis Dimension        Dim             ....  222

ORBITAL ENERGIES
----------------

  NO   OCC          E(Eh)            E(eV)
   0   2.0000     -19.001740      -517.0636
   1   2.0000     -18.942912      -515.4628
   2   2.0000     -10.161600      -276.5112
   3   2.0000     -10.083224      -274.3785
   4   2.0000     -10.034666      -273.0572
   5   2.0000     -10.030353      -272.9398
   6   2.0000     -10.018256      -272.6106
   7   2.0000     -10.011951      -272.4391
   8   2.0000      -1.078329       -29.3428
   9   2.0000      -0.988314       -26.8934
  10   2.0000      -0.769991       -20.9525
  11   2.0000      -0.732233       -19.9251
  12   2.0000      -0.674147       -18.3445
  13   2.0000      -0.616352       -16.7718
  14   2.0000      -0.560098       -15.2411
  15   2.0000      -0.521859       -14.2005
  16   2.0000      -0.472329       -12.8527
  17   2.0000      -0.461288       -12.5523
  18   2.0000      -0.437474       -11.9043
  19   2.0000      -0.423995       -11.5375
  20   2.0000      -0.409083       -11.1317
  21   2.0000      -0.383954       -10.4479
  22   2.0000      -0.371158       -10.0997
  23   2.0000      -0.355592        -9.6761
  24   2.0000      -0.348951        -9.4954
  25   2.0000      -0.338231        -9.2037
  26   2.0000      -0.323075        -8.7913
  27   2.0000      -0.308661        -8.3991
  28   2.0000      -0.301191        -8.1958
  29   2.0000      -0.300835        -8.1861
  30   2.0000      -0.276575        -7.5260
  31   2.0000      -0.248770        -6.7694
  32   0.0000      -0.022687        -0.6174
  33   0.0000       0.079081         2.1519
  34   0.0000       0.098210         2.6724
  35   0.0000       0.115764         3.1501
  36   0.0000       0.129462         3.5228

MULLIKEN ATOMIC CHARGES
-----------------------
   0 C :   -0.518544
   1 C :   -0.218995
   2 C :   -0.372948
   3 C :    0.468044
   4 O :   -0.517566
   5 O :   -0.203045
   6 C :   -0.143834
   7 C :   -0.491451
   8 H :    0.162330
   9 H :    0.159122
  10 H :    0.159267
  11 H :    0.157953
  12 H :    0.157510
  13 H :    0.176040
  14 H :    0.177913
  15 H :    0.171327
  16 H :    0.173589
  17 H :    0.167891
  18 H :    0.170012
  19 H :    0.165385
Sum of atomic charges:   -0.0000000

LOEWDIN ATOMIC CHARGES
----------------------
   0 C :   -0.424759
   1 C :   -0.284944
   2 C :   -0.227619
   3 C :    0.365315
   4 O :   -0.494179
   5 O :   -0.599457
   6 C :    0.031870
   7 C :   -0.393129
   8 H :    0.156389
   9 H :    0.154851
  10 H :    0.154835
  11 H :    0.161851
  12 H :    0.161338
  13 H :    0.181950
  14 H :    0.185751
  15 H :    0.189335
  16 H :    0.188798
  17 H :    0.162171
  18 H :    0.167703
  19 H :    0.161930

  Mayer bond orders larger than 0.100000
B(  0-C ,  1-C ) :   0.8867 B(  0-C ,  8-H ) :   0.9685 B(  0-C ,  9-H ) :   0.9816
B(  0-C , 10-H ) :   0.9826 B(  1-C ,  2-C ) :   0.9158 B(  1-C , 11-H ) :   0.9601
B(  1-C , 12-H ) :   0.9572 B(  2-C ,  3-C ) :   0.9568 B(  2-C , 13-H ) :   0.9779
B(  2-C , 14-H ) :   0.9691 B(  3-C ,  4-O ) :   1.7706 B(  3-C ,  5-O ) :   1.0552
B(  5-O ,  6-C ) :   0.8002 B(  6-C ,  7-C ) :   0.9368 B(  6-C , 15-H ) :   0.9627
B(  6-C , 16-H ) :   0.9515 B(  7-C , 17-H ) :   0.9688 B(  7-C , 18-H ) :   0.9606
B(  7-C , 19-H ) :   0.9698

Dispersion correction           -0.004963331
FINAL SINGLE POINT ENERGY      -386.240720395347

DIPOLE MOMENT
-------------

Method             : SCF
Type of density    : Electron Density
Multiplicity       :   1
Irrep              :   0
Energy             :  -386.2474101667079367 Eh
Relativity type    :
Basis              : AO
                                X                 Y                 Z
Electronic contribution:      3.220137013       2.324639453      -1.353868398
Nuclear contribution   :     -3.147565584      -3.225163794       2.097487511
                        -----------------------------------------
Total Dipole Moment    :      0.072571429      -0.900524341       0.743619113
                        -----------------------------------------
Magnitude (a.u.)       :      1.170119689
Magnitude (Debye)      :      2.974207885

Rotational constants in cm-1:             0.176071             0.030199             0.028252
Rotational constants in MHz :          5278.472986           905.344593           846.987095

                             ****ORCA TERMINATED NORMALLY****
TOTAL RUN TIME: 0 days 0 hours 0 minutes 36 seconds 226 msec
