                         Program Version 6.0.0  -   RELEASE  -
|  1> ! r2scan-3c def2/J RI DEFGRID2 scfconv6 printgap
|  2> %output
|  3>     printlevel normal
|  4> end
|  5> * xyz 0 1
|  6> C 2.9167989863 -0.0334854022 -0.6708445629
|  7> C 1.882675761 -0.6995382542 0.2303059702
|  8> C 0.9636456031 0.2966842437 0.9399577987
|  9> C 0.1174743509 1.1705830591 0.0116910919
| 10> C -0.8666105655 0.3960614628 -0.8462468468
| 11> Cl -2.0859665624 -0.4601703627 0.1662409585
| 12> H 3.4794524774 0.7127928662 -0.1146590263
| 13> H 2.4447424977 0.450965575 -1.5212371979
| 14> H 3.6149083987 -0.7754806434 -1.0508844788
| 15> H 1.288367457 -1.4049547653 -0.3527853445
| 16> H 2.4032879442 -1.2773416329 0.9974665053
| 17> H 1.5745198867 0.955425504 1.5605166004
| 18> H 0.2958548891 -0.2565033744 1.6040300086
| 19> H 0.7663380911 1.7309425125 -0.6625512075
| 20> H -0.4336545717 1.890203194 0.6198909786
| 21> H -1.4340476475 1.0625064149 -1.4930152749
| 22> H -0.3765835079 -0.371693659 -1.4405423886
| 23> *
| 24>
| 25>                          ****END OF INPUT****

CARTESIAN COORDINATES (ANGSTROEM)
---------------------------------
  C      2.916799   -0.033485   -0.670845
  C      1.882676   -0.699538    0.230306
  C      0.963646    0.296684    0.939958
  C      0.117474    1.170583    0.011691
  C     -0.866611    0.396061   -0.846247
  Cl    -2.085967   -0.460170    0.166241
  H      3.479452    0.712793   -0.114659
  H      2.444742    0.450966   -1.521237
  H      3.614908   -0.775481   -1.050884
  H      1.288367   -1.404955   -0.352785
  H      2.403288   -1.277342    0.997467
  H      1.574520    0.955426    1.560517
  H      0.295855   -0.256503    1.604030
  H      0.766338    1.730943   -0.662551
  H     -0.433655    1.890203    0.619891
  H     -1.434048    1.062506   -1.493015
  H     -0.376584   -0.371694   -1.440542

 Total Charge           Charge          ....    0
 Multiplicity           Mult            ....    1
 Number of Electrons    NEL             ....   58
 Basis Dimension        Dim             ....  177

ORBITAL ENERGIES
----------------

  NO   OCC          E(Eh)            E(eV)
   0   2.0000    -101.197483     -2753.7235
   1   2.0000     -10.091322      -274.5988
   2   2.0000     -10.040758      -273.2229
   3   2.0000     -10.029003      -272.9030
   4   2.0000     -10.028035      -272.8767
   5   2.0000     -10.021380      -272.6956
   6   2.0000      -9.353487      -254.5213
   7   2.0000      -7.099621      -193.1905
   8   2.0000      -7.089596      -192.9177
   9   2.0000      -7.089546      -192.9164
  10   2.0000      -0.822201       -22.3732
  11   2.0000      -0.765689       -20.8355
  12   2.0000      -0.708347       -19.2751
  13   2.0000      -0.645921       -17.5764
  14   2.0000      -0.588789       -16.0218
  15   2.0000      -0.526611       -14.3298
  16   2.0000      -0.457280       -12.4432
  17   2.0000      -0.446325       -12.1451
  18   2.0000      -0.406003       -11.0479
  19   2.0000      -0.398044       -10.8313
  20   2.0000      -0.393859       -10.7174
  21   2.0000      -0.354586        -9.6488
  22   2.0000      -0.345479        -9.4010
  23   2.0000      -0.341775        -9.3002
  24   2.0000      -0.302612        -8.2345
  25   2.0000      -0.297629        -8.0989
  26   2.0000      -0.296976        -8.0811
  27   2.0000      -0.263585        -7.1725
  28   2.0000      -0.261893        -7.1265
  29   0.0000       0.008649         0.2354
  30   0.0000       0.076567         2.0835
  31   0.0000       0.109614         2.9827
  32   0.0000       0.111057         3.0220
  33   0.0000       0.118243         3.2176

MULLIKEN ATOMIC CHARGES
-----------------------
   0 C :   -0.479372
   1 C :   -0.253517
   2 C :   -0.270970
   3 C :   -0.288563
   4 C :   -0.174536
   5 Cl:   -0.205700
   6 H :    0.147468
   7 H :    0.142650
   8 H :    0.148855
   9 H :    0.143090
  10 H :    0.144938
  11 H :    0.145391
  12 H :    0.165505
  13 H :    0.151376
  14 H :    0.159581
  15 H :    0.165260
  16 H :    0.158543
Sum of atomic charges:   -0.0000000

LOEWDIN ATOMIC CHARGES
----------------------
   0 C :   -0.426988
   1 C :   -0.318212
   2 C :   -0.319565
   3 C :   -0.328749
   4 C :   -0.317712
   5 Cl:   -0.006412
   6 H :    0.151429
   7 H :    0.146016
   8 H :    0.152373
   9 H :    0.150453
  10 H :    0.155183
  11 H :    0.156410
  12 H :    0.164073
  13 H :    0.162798
  14 H :    0.164167
  15 H :    0.158073
  16 H :    0.156663

  Mayer bond orders larger than 0.100000
B(  0-C ,  1-C ) :   0.8904 B(  0-C ,  6-H ) :   0.9806 B(  0-C ,  7-H ) :   0.9804
B(  0-C ,  8-H ) :   0.9687 B(  1-C ,  2-C ) :   0.9023 B(  1-C ,  9-H ) :   0.9831
B(  1-C , 10-H ) :   0.9623 B(  2-C ,  3-C ) :   0.8956 B(  2-C , 11-H ) :   0.9759
B(  2-C , 12-H ) :   0.9669 B(  3-C ,  4-C ) :   0.9220 B(  3-C , 13-H ) :   0.9680
B(  3-C , 14-H ) :   0.9591 B(  4-C ,  5-Cl) :   0.9772 B(  4-C , 15-H ) :   0.9536
B(  4-C , 16-H ) :   0.9692

Dispersion correction           -0.004571021
FINAL SINGLE POINT ENERGY      -657.267816310443

DIPOLE MOMENT
-------------

Method             : SCF
Type of density    : Electron Density
Multiplicity       :   1
Irrep              :   0
Energy             :  -657.2736456234023308 Eh
Relativity type    :
Basis              : AO
                                X                 Y                 Z
Electronic contribution:    -14.920221368      -2.779657663       1.636362192
Nuclear contribution   :     15.580636858       3.166517053      -1.962278309
                        -----------------------------------------
Total Dipole Moment    :      0.660415490       0.386859390      -0.325916117
                        -----------------------------------------
Magnitude (a.u.)       :      0.831883479
Magnitude (Debye)      :      2.114479763

Rotational constants in cm-1:             0.194744             0.041878             0.040724
Rotational constants in MHz :          5838.286123          1255.463153          1220.886308

                             ****ORCA TERMINATED NORMALLY****
TOTAL RUN TIME: 0 days 0 hours 0 minutes 19 seconds 487 msec
