                         Program Version 6.0.0  -   RELEASE  -
|  1> ! r2scan-3c def2/J RI DEFGRID2 scfconv6 printgap
|  2> %output
|  3>     printlevel normal
|  4> end
|  5> %cpcm
|  6>     smd true
|  7>     smdsolvent "water"
|  8> end
|  9> * xyz 0 1
| 10> C 2.9167989863 -0.0334854022 -0.6708445629
| 11> C 1.882675761 -0.6995382542 0.2303059702
| 12> C 0.9636456031 0.2966842437 0.9399577987
| 13> C 0.1174743509 1.1705830591 0.0116910919
| 14> C -0.8666105655 0.3960614628 -0.8462468468
| 15> Cl -2.0859665624 -0.4601703627 0.1662409585
| 16> H 3.4794524774 0.7127928662 -0.1146590263
| 17> H 2.4447424977 0.450965575 -1.5212371979
| 18> H 3.6149083987 -0.7754806434 -1.0508844788
| 19> H 1.288367457 -1.4049547653 -0.3527853445
| 20> H 2.4032879442 -1.2773416329 0.9974665053
| 21> H 1.5745198867 0.955425504 1.5605166004
| 22> H 0.2958548891 -0.2565033744 1.6040300086
| 23> H 0.7663380911 1.7309425125 -0.6625512075
| 24> H -0.4336545717 1.890203194 0.6198909786
| 25> H -1.4340476475 1.0625064149 -1.4930152749
| 26> H -0.3765835079 -0.371693659 -1.4405423886
| 27> *
| 28>
| 29>                          ****END OF INPUT****

CARTESIAN COORDINATES (ANGSTROEM)
---------------------------------
  C      2.916799   -0.033485   -0.670845
  C      1.882676   -0.699538    0.230306
  C      0.963646    0.296684    0.939958
  C      0.117474    1.170583    0.011691
  C     -0.866611    0.396061   -0.846247
  Cl    -2.085967   -0.460170    0.166241
  H      3.479452    0.712793   -0.114659
  H      2.444742    0.450966   -1.521237
  H      3.614908   -0.775481   -1.050884
  H      1.288367   -1.404955   -0.352785
  H      2.403288   -1.277342    0.997467
  H      1.574520    0.955426    1.560517
  H      0.295855   -0.256503    1.604030
  H      0.766338    1.730943   -0.662551
  H     -0.433655    1.890203    0.619891
  H     -1.434048    1.062506   -1.493015
  H     -0.376584   -0.371694   -1.440542

 Total Charge           Charge          ....    0
 Multiplicity           Mult            ....    1
 Number of Electrons    NEL             ....   58
 Basis Dimension        Dim             ....  177

ORBITAL ENERGIES
----------------

  NO   OCC          E(Eh)            E(eV)
   0   2.0000    -101.197670     -2753.7286
   1   2.0000     -10.079811      -274.2856
   2   2.0000     -10.026826      -272.8438
   3   2.0000     -10.016660      -272.5672
   4   2.0000     -10.016415      -272.5605
   5   2.0000     -10.007150      -272.3084
   6   2.0000      -9.354064      -254.5370
   7   2.0000      -7.099795      -193.1952
   8   2.0000      -7.090349      -192.9382
   9   2.0000      -7.090282      -192.9364
  10   2.0000      -0.817248       -22.2385
  11   2.0000      -0.755219       -20.5505
  12   2.0000      -0.697244       -18.9730
  13   2.0000      -0.634560       -17.2672
  14   2.0000      -0.576549       -15.6887
  15   2.0000      -0.514563       -14.0020
  16   2.0000      -0.444124       -12.0852
  17   2.0000      -0.434803       -11.8316
  18   2.0000      -0.392926       -10.6921
  19   2.0000      -0.387291       -10.5387
  20   2.0000      -0.384593       -10.4653
  21   2.0000      -0.342282        -9.3140
  22   2.0000      -0.334027        -9.0893
  23   2.0000      -0.329641        -8.9700
  24   2.0000      -0.291117        -7.9217
  25   2.0000      -0.286215        -7.7883
  26   2.0000      -0.284986        -7.7549
  27   2.0000      -0.262914        -7.1543
  28   2.0000      -0.260826        -7.0974
  29   0.0000       0.013948         0.3795
  30   0.0000       0.090741         2.4692
  31   0.0000       0.123229         3.3532
  32   0.0000       0.124388         3.3848
  33   0.0000       0.130845         3.5605

MULLIKEN ATOMIC CHARGES
-----------------------
   0 C :   -0.518335
   1 C :   -0.257306
   2 C :   -0.290888
   3 C :   -0.295677
   4 C :   -0.187369
   5 Cl:   -0.254838
   6 H :    0.156368
   7 H :    0.159918
   8 H :    0.155809
   9 H :    0.151915
  10 H :    0.150347
  11 H :    0.157544
  12 H :    0.156895
  13 H :    0.172209
  14 H :    0.168571
  15 H :    0.190134
  16 H :    0.184704
Sum of atomic charges:   -0.0000000

LOEWDIN ATOMIC CHARGES
----------------------
   0 C :   -0.434127
   1 C :   -0.320719
   2 C :   -0.323228
   3 C :   -0.327622
   4 C :   -0.311554
   5 Cl:   -0.038980
   6 H :    0.153424
   7 H :    0.151718
   8 H :    0.153220
   9 H :    0.153013
  10 H :    0.155396
  11 H :    0.159796
  12 H :    0.159069
  13 H :    0.172014
  14 H :    0.165236
  15 H :    0.167052
  16 H :    0.166292

  Mayer bond orders larger than 0.100000
B(  0-C ,  1-C ) :   0.8865 B(  0-C ,  6-H ) :   0.9784 B(  0-C ,  7-H ) :   0.9770
B(  0-C ,  8-H ) :   0.9674 B(  1-C ,  2-C ) :   0.9003 B(  1-C ,  9-H ) :   0.9816
B(  1-C , 10-H ) :   0.9635 B(  2-C ,  3-C ) :   0.8882 B(  2-C , 11-H ) :   0.9753
B(  2-C , 12-H ) :   0.9714 B(  3-C ,  4-C ) :   0.9160 B(  3-C , 13-H ) :   0.9620
B(  3-C , 14-H ) :   0.9619 B(  4-C ,  5-Cl) :   0.9378 B(  4-C , 15-H ) :   0.9476
B(  4-C , 16-H ) :   0.9630

Dispersion correction           -0.004571021
FINAL SINGLE POINT ENERGY      -657.269178387374

DIPOLE MOMENT
-------------

Method             : SCF
Type of density    : Electron Density
Multiplicity       :   1
Irrep              :   0
Energy             :  -657.2750077003335036 Eh
Relativity type    :
Basis              : AO
                                X                 Y                 Z
Electronic contribution:    -14.743382335      -2.618518175       1.441613326
Nuclear contribution   :     15.580636858       3.166517053      -1.962278309
                        -----------------------------------------
Total Dipole Moment    :      0.837254523       0.547998878      -0.520664983
                        -----------------------------------------
Magnitude (a.u.)       :      1.128002629
Magnitude (Debye)      :      2.867154826

Rotational constants in cm-1:             0.194744             0.041878             0.040724
Rotational constants in MHz :          5838.286123          1255.463153          1220.886308

                             ****ORCA TERMINATED NORMALLY****
TOTAL RUN TIME: 0 days 0 hours 0 minutes 25 seconds 535 msec
