                         Program Version 6.0.0  -   RELEASE  -
|  1> ! pbe def2-sv(p) def2/J RI DEFGRID1 loosescf d4 GCP(DFT/SV(P)) printgap
|  2> %output
|  3>     printlevel normal
|  4> end
|  5> * xyz 0 1
|  6> C -3.2626869103 -0.8899111952 0.3360288298
|  7> C -1.8709579913 -0.6241383035 -0.2249683414
|  8> C -1.5013037915 0.854882166 -0.1333010683
|  9> C -0.1201474944 1.1377443152 -0.7342502482
| 10> C 0.9574084482 0.4746035089 0.0834320566
| 11> O 1.147961091 0.6666909574 1.2664014358
| 12> O 1.6771746754 -0.3661919275 -0.6502947505
| 13> C 2.7482552529 -1.0845896631 -0.030164467
| 14> H -4.0084262278 -0.3220827278 -0.2149373318
| 15> H -3.5086223699 -1.9459561856 0.2618921434
| 16> H -3.3122206277 -0.5974607489 1.3823218122
| 17> H -1.1366378648 -1.2135962106 0.3300934546
| 18> H -1.8316616783 -0.9426244878 -1.2687274291
| 19> H -1.4976522808 1.1654477323 0.9135980994
| 20> H -2.2457673319 1.4490808093 -0.6643900447
| 21> H 0.0668179453 2.2124246813 -0.7169034208
| 22> H -0.0569412737 0.7723931417 -1.7583965273
| 23> H 2.7257509299 -2.0916043071 -0.4383917588
| 24> H 2.6097860574 -1.0961978176 1.0515988716
| 25> H 3.6890328177 -0.5939598222 -0.2776219255
| 26> *
| 27>
| 28>                          ****END OF INPUT****

CARTESIAN COORDINATES (ANGSTROEM)
---------------------------------
  C     -3.262687   -0.889911    0.336029
  C     -1.870958   -0.624138   -0.224968
  C     -1.501304    0.854882   -0.133301
  C     -0.120147    1.137744   -0.734250
  C      0.957408    0.474604    0.083432
  O      1.147961    0.666691    1.266401
  O      1.677175   -0.366192   -0.650295
  C      2.748255   -1.084590   -0.030164
  H     -4.008426   -0.322083   -0.214937
  H     -3.508622   -1.945956    0.261892
  H     -3.312221   -0.597461    1.382322
  H     -1.136638   -1.213596    0.330093
  H     -1.831662   -0.942624   -1.268727
  H     -1.497652    1.165448    0.913598
  H     -2.245767    1.449081   -0.664390
  H      0.066818    2.212425   -0.716903
  H     -0.056941    0.772393   -1.758397
  H      2.725751   -2.091604   -0.438392
  H      2.609786   -1.096198    1.051599
  H      3.689033   -0.593960   -0.277622

 Total Charge           Charge          ....    0
 Multiplicity           Mult            ....    1
 Number of Electrons    NEL             ....   64
 Basis Dimension        Dim             ....  136

ORBITAL ENERGIES
----------------

  NO   OCC          E(Eh)            E(eV)
   0   2.0000     -18.799810      -511.5688
   1   2.0000     -18.730830      -509.6918
   2   2.0000     -10.004751      -272.2431
   3   2.0000      -9.940100      -270.4839
   4   2.0000      -9.896102      -269.2866
   5   2.0000      -9.889646      -269.1109
   6   2.0000      -9.885487      -268.9978
   7   2.0000      -9.874993      -268.7122
   8   2.0000      -1.004351       -27.3298
   9   2.0000      -0.908355       -24.7176
  10   2.0000      -0.731268       -19.8988
  11   2.0000      -0.684869       -18.6362
  12   2.0000      -0.647347       -17.6152
  13   2.0000      -0.576669       -15.6919
  14   2.0000      -0.525920       -14.3110
  15   2.0000      -0.499358       -13.5882
  16   2.0000      -0.452168       -12.3041
  17   2.0000      -0.436130       -11.8677
  18   2.0000      -0.422544       -11.4980
  19   2.0000      -0.403003       -10.9663
  20   2.0000      -0.394125       -10.7247
  21   2.0000      -0.381246       -10.3742
  22   2.0000      -0.368299       -10.0219
  23   2.0000      -0.340377        -9.2621
  24   2.0000      -0.335292        -9.1238
  25   2.0000      -0.323211        -8.7950
  26   2.0000      -0.302634        -8.2351
  27   2.0000      -0.292010        -7.9460
  28   2.0000      -0.288813        -7.8590
  29   2.0000      -0.284178        -7.7329
  30   2.0000      -0.255601        -6.9553
  31   2.0000      -0.218788        -5.9535
  32   0.0000      -0.019084        -0.5193
  33   0.0000       0.039891         1.0855
  34   0.0000       0.056890         1.5481
  35   0.0000       0.064077         1.7436
  36   0.0000       0.074435         2.0255

MULLIKEN ATOMIC CHARGES
-----------------------
   0 C :   -0.255830
   1 C :   -0.210496
   2 C :   -0.199067
   3 C :   -0.095340
   4 C :    0.082555
   5 O :   -0.207883
   6 O :   -0.239163
   7 C :   -0.128212
   8 H :    0.096611
   9 H :    0.102623
  10 H :    0.101454
  11 H :    0.101686
  12 H :    0.084472
  13 H :    0.103432
  14 H :    0.087022
  15 H :    0.111147
  16 H :    0.090786
  17 H :    0.122015
  18 H :    0.130913
  19 H :    0.121274
Sum of atomic charges:   -0.0000000

LOEWDIN ATOMIC CHARGES
----------------------
   0 C :   -0.338724
   1 C :   -0.236625
   2 C :   -0.219698
   3 C :   -0.244161
   4 C :    0.034895
   5 O :   -0.173914
   6 O :   -0.072678
   7 C :   -0.208868
   8 H :    0.116584
   9 H :    0.119158
  10 H :    0.119293
  11 H :    0.117289
  12 H :    0.114437
  13 H :    0.123674
  14 H :    0.116935
  15 H :    0.141647
  16 H :    0.126702
  17 H :    0.120677
  18 H :    0.123271
  19 H :    0.120104

  Mayer bond orders larger than 0.100000
B(  0-C ,  1-C ) :   1.1571 B(  0-C ,  8-H ) :   0.9546 B(  0-C ,  9-H ) :   0.9533
B(  0-C , 10-H ) :   0.9545 B(  1-C ,  2-C ) :   1.1339 B(  1-C , 11-H ) :   0.9194
B(  1-C , 12-H ) :   0.9258 B(  2-C ,  3-C ) :   1.1126 B(  2-C , 13-H ) :   0.9151
B(  2-C , 14-H ) :   0.9232 B(  3-C ,  4-C ) :   1.0116 B(  3-C , 15-H ) :   0.8942
B(  3-C , 16-H ) :   0.9067 B(  4-C ,  5-O ) :   2.0589 B(  4-C ,  6-O ) :   1.2149
B(  6-O ,  7-C ) :   0.9376 B(  7-C , 17-H ) :   0.9608 B(  7-C , 18-H ) :   0.9322
B(  7-C , 19-H ) :   0.9601

Dispersion correction           -0.015118571
FINAL SINGLE POINT ENERGY      -385.452592354326

DIPOLE MOMENT
-------------

Method             : SCF
Type of density    : Electron Density
Multiplicity       :   1
Irrep              :   0
Energy             :  -385.5276921766940177 Eh
Relativity type    :
Basis              : AO
                                X                 Y                 Z
Electronic contribution:      8.032141122       2.659964669       0.714573734
Nuclear contribution   :     -7.938662752      -3.001557791      -1.304170108
                        -----------------------------------------
Total Dipole Moment    :      0.093478370      -0.341593122      -0.589596374
                        -----------------------------------------
Magnitude (a.u.)       :      0.687784814
Magnitude (Debye)      :      1.748210065

Rotational constants in cm-1:             0.122590             0.033992             0.031743
Rotational constants in MHz :          3675.151700          1019.047328           951.631320

                             ****ORCA TERMINATED NORMALLY****
TOTAL RUN TIME: 0 days 0 hours 0 minutes 10 seconds 600 msec
