                         Program Version 6.0.0  -   RELEASE  -
|  1> ! pbe def2-sv(p) def2/J RI DEFGRID1 loosescf d4 GCP(DFT/SV(P)) printgap
|  2> %output
|  3>     printlevel normal
|  4> end
|  5> * xyz 0 1
|  6> C -3.2714957201 -1.1717037251 0.2872757196
|  7> C -1.7956063413 -0.8219774745 0.4347768763
|  8> C -1.4480358664 0.4351185836 -0.361925079
|  9> C -0.0036193944 0.848514259 -0.2571307796
| 10> O 0.3840901755 1.9961871477 -0.3685700141
| 11> O 0.8156693376 -0.1697943111 -0.0506874943
| 12> C 2.2219506394 0.1139091925 0.0412912889
| 13> C 2.9548199227 -1.1946397083 0.263932805
| 14> H -3.5168535492 -1.3607034559 -0.7547674838
| 15> H -3.5068935423 -2.0620962322 0.8635758368
| 16> H -3.8950279542 -0.355750549 0.6444202683
| 17> H -1.1821972015 -1.6516792457 0.083393516
| 18> H -1.5614600189 -0.6563071361 1.4877320951
| 19> H -2.057209816 1.2838174673 -0.0464841946
| 20> H -1.6494436167 0.2648320212 -1.4231365344
| 21> H 2.5370329027 0.6053779623 -0.8851422034
| 22> H 2.3794303808 0.8150698248 0.8674437435
| 23> H 2.6113945268 -1.6618551156 1.1819819389
| 24> H 2.7685977468 -1.871087242 -0.5648733875
| 25> H 4.0199171951 -1.0013144074 0.3364389797
| 26> *
| 27>
| 28>                          ****END OF INPUT****

CARTESIAN COORDINATES (ANGSTROEM)
---------------------------------
  C     -3.271496   -1.171704    0.287276
  C     -1.795606   -0.821977    0.434777
  C     -1.448036    0.435119   -0.361925
  C     -0.003619    0.848514   -0.257131
  O      0.384090    1.996187   -0.368570
  O      0.815669   -0.169794   -0.050687
  C      2.221951    0.113909    0.041291
  C      2.954820   -1.194640    0.263933
  H     -3.516854   -1.360703   -0.754767
  H     -3.506894   -2.062096    0.863576
  H     -3.895028   -0.355751    0.644420
  H     -1.182197   -1.651679    0.083394
  H     -1.561460   -0.656307    1.487732
  H     -2.057210    1.283817   -0.046484
  H     -1.649444    0.264832   -1.423137
  H      2.537033    0.605378   -0.885142
  H      2.379430    0.815070    0.867444
  H      2.611395   -1.661855    1.181982
  H      2.768598   -1.871087   -0.564873
  H      4.019917   -1.001314    0.336439

 Total Charge           Charge          ....    0
 Multiplicity           Mult            ....    1
 Number of Electrons    NEL             ....   64
 Basis Dimension        Dim             ....  136

ORBITAL ENERGIES
----------------

  NO   OCC          E(Eh)            E(eV)
   0   2.0000     -18.797160      -511.4967
   1   2.0000     -18.728149      -509.6188
   2   2.0000     -10.000316      -272.1224
   3   2.0000      -9.946109      -270.6474
   4   2.0000      -9.895492      -269.2700
   5   2.0000      -9.889983      -269.1201
   6   2.0000      -9.888904      -269.0908
   7   2.0000      -9.878102      -268.7968
   8   2.0000      -1.004051       -27.3216
   9   2.0000      -0.903487       -24.5851
  10   2.0000      -0.729010       -19.8374
  11   2.0000      -0.698088       -18.9959
  12   2.0000      -0.638361       -17.3707
  13   2.0000      -0.578708       -15.7474
  14   2.0000      -0.534903       -14.5554
  15   2.0000      -0.507953       -13.8221
  16   2.0000      -0.449580       -12.2337
  17   2.0000      -0.438231       -11.9249
  18   2.0000      -0.424770       -11.5586
  19   2.0000      -0.399561       -10.8726
  20   2.0000      -0.381114       -10.3706
  21   2.0000      -0.368228       -10.0200
  22   2.0000      -0.359475        -9.7818
  23   2.0000      -0.347864        -9.4659
  24   2.0000      -0.342970        -9.3327
  25   2.0000      -0.323204        -8.7948
  26   2.0000      -0.312945        -8.5157
  27   2.0000      -0.306528        -8.3410
  28   2.0000      -0.296318        -8.0632
  29   2.0000      -0.288771        -7.8579
  30   2.0000      -0.254807        -6.9336
  31   2.0000      -0.210671        -5.7326
  32   0.0000      -0.016113        -0.4384
  33   0.0000       0.034259         0.9322
  34   0.0000       0.048153         1.3103
  35   0.0000       0.075768         2.0618
  36   0.0000       0.076777         2.0892

MULLIKEN ATOMIC CHARGES
-----------------------
   0 C :   -0.255684
   1 C :   -0.204805
   2 C :   -0.168010
   3 C :    0.123839
   4 O :   -0.214598
   5 O :   -0.240404
   6 C :   -0.029400
   7 C :   -0.271652
   8 H :    0.096558
   9 H :    0.104740
  10 H :    0.098970
  11 H :    0.099516
  12 H :    0.092317
  13 H :    0.104960
  14 H :    0.113254
  15 H :    0.105162
  16 H :    0.105273
  17 H :    0.114901
  18 H :    0.114011
  19 H :    0.111052
Sum of atomic charges:    0.0000000

LOEWDIN ATOMIC CHARGES
----------------------
   0 C :   -0.339990
   1 C :   -0.235540
   2 C :   -0.245770
   3 C :    0.032993
   4 O :   -0.174521
   5 O :   -0.065642
   6 C :   -0.107957
   7 C :   -0.351064
   8 H :    0.117285
   9 H :    0.120408
  10 H :    0.117682
  11 H :    0.119650
  12 H :    0.117905
  13 H :    0.136363
  14 H :    0.142377
  15 H :    0.116306
  16 H :    0.116566
  17 H :    0.126461
  18 H :    0.126125
  19 H :    0.130363

  Mayer bond orders larger than 0.100000
B(  0-C ,  1-C ) :   1.1551 B(  0-C ,  8-H ) :   0.9538 B(  0-C ,  9-H ) :   0.9534
B(  0-C , 10-H ) :   0.9533 B(  1-C ,  2-C ) :   1.1236 B(  1-C , 11-H ) :   0.9176
B(  1-C , 12-H ) :   0.9345 B(  2-C ,  3-C ) :   1.0422 B(  2-C , 13-H ) :   0.9099
B(  2-C , 14-H ) :   0.8890 B(  3-C ,  4-O ) :   2.0545 B(  3-C ,  5-O ) :   1.2084
B(  5-O ,  6-C ) :   0.9115 B(  6-C ,  7-C ) :   1.1486 B(  6-C , 15-H ) :   0.9316
B(  6-C , 16-H ) :   0.9322 B(  7-C , 17-H ) :   0.9498 B(  7-C , 18-H ) :   0.9499
B(  7-C , 19-H ) :   0.9444

Dispersion correction           -0.014423866
FINAL SINGLE POINT ENERGY      -385.456968311041

DIPOLE MOMENT
-------------

Method             : SCF
Type of density    : Electron Density
Multiplicity       :   1
Irrep              :   0
Energy             :  -385.5321587337239748 Eh
Relativity type    :
Basis              : AO
                                X                 Y                 Z
Electronic contribution:      2.978966093       6.329367539      -1.570796146
Nuclear contribution   :     -2.846163393      -7.151484421       1.673648123
                        -----------------------------------------
Total Dipole Moment    :      0.132802700      -0.822116882       0.102851977
                        -----------------------------------------
Magnitude (a.u.)       :      0.839101456
Magnitude (Debye)      :      2.132826403

Rotational constants in cm-1:             0.111089             0.035355             0.027710
Rotational constants in MHz :          3330.365253          1059.906401           830.720319

                             ****ORCA TERMINATED NORMALLY****
TOTAL RUN TIME: 0 days 0 hours 0 minutes 11 seconds 359 msec
