                         Program Version 6.0.0  -   RELEASE  -
|  1> ! r2scan-3c def2/J RI DEFGRID2 scfconv6 printgap
|  2> %output
|  3>     printlevel normal
|  4> end
|  5> * xyz 0 1
|  6> C -3.9307960811 0.0710689031 -0.2941808805
|  7> C -2.6986339022 -0.2431419853 0.5456161335
|  8> C -1.4095965099 0.0676454423 -0.210757171
|  9> C -0.1725765103 -0.242941208 0.62666918
| 10> C 1.1063319894 0.0362195104 -0.1179524059
| 11> O 1.1841203463 0.3801501666 -1.2778097504
| 12> O 2.1636865723 -0.1537711686 0.6669921637
| 13> C 3.4732979965 0.0546779993 0.1280094635
| 14> H -3.9273694455 -0.5166348092 -1.2091615328
| 15> H -4.8383409494 -0.1569792688 0.2587657682
| 16> H -3.9477800608 1.1239156173 -0.5658667504
| 17> H -2.7276353588 0.3440433846 1.4655302506
| 18> H -2.7088113646 -1.2990099095 0.8229542869
| 19> H -1.3930603951 1.1213622083 -0.4963081285
| 20> H -1.3708522372 -0.5152607991 -1.1331113183
| 21> H -0.1600268904 -1.2953168693 0.9183034141
| 22> H -0.1623255987 0.3469716166 1.5447826626
| 23> H 4.0872773154 -0.7792435036 0.4589938637
| 24> H 3.8636577309 0.9933383743 0.5193251637
| 25> H 3.4238979711 0.0956069959 -0.9606223874
| 26> *
| 27>
| 28>                          ****END OF INPUT****

CARTESIAN COORDINATES (ANGSTROEM)
---------------------------------
  C     -3.930796    0.071069   -0.294181
  C     -2.698634   -0.243142    0.545616
  C     -1.409597    0.067645   -0.210757
  C     -0.172577   -0.242941    0.626669
  C      1.106332    0.036220   -0.117952
  O      1.184120    0.380150   -1.277810
  O      2.163687   -0.153771    0.666992
  C      3.473298    0.054678    0.128009
  H     -3.927369   -0.516635   -1.209162
  H     -4.838341   -0.156979    0.258766
  H     -3.947780    1.123916   -0.565867
  H     -2.727635    0.344043    1.465530
  H     -2.708811   -1.299010    0.822954
  H     -1.393060    1.121362   -0.496308
  H     -1.370852   -0.515261   -1.133111
  H     -0.160027   -1.295317    0.918303
  H     -0.162326    0.346972    1.544783
  H      4.087277   -0.779244    0.458994
  H      3.863658    0.993338    0.519325
  H      3.423898    0.095607   -0.960622

 Total Charge           Charge          ....    0
 Multiplicity           Mult            ....    1
 Number of Electrons    NEL             ....   64
 Basis Dimension        Dim             ....  222

ORBITAL ENERGIES
----------------

  NO   OCC          E(Eh)            E(eV)
   0   2.0000     -18.997462      -516.9472
   1   2.0000     -18.930300      -515.1197
   2   2.0000     -10.153661      -276.2952
   3   2.0000     -10.084672      -274.4179
   4   2.0000     -10.043012      -273.2843
   5   2.0000     -10.027143      -272.8524
   6   2.0000     -10.026711      -272.8407
   7   2.0000     -10.016114      -272.5523
   8   2.0000      -1.071349       -29.1529
   9   2.0000      -0.977410       -26.5967
  10   2.0000      -0.775804       -21.1107
  11   2.0000      -0.728920       -19.8349
  12   2.0000      -0.686197       -18.6724
  13   2.0000      -0.614414       -16.7190
  14   2.0000      -0.552146       -15.0247
  15   2.0000      -0.526684       -14.3318
  16   2.0000      -0.467491       -12.7211
  17   2.0000      -0.464633       -12.6433
  18   2.0000      -0.440395       -11.9838
  19   2.0000      -0.438754       -11.9391
  20   2.0000      -0.401900       -10.9362
  21   2.0000      -0.397343       -10.8122
  22   2.0000      -0.386717       -10.5231
  23   2.0000      -0.356144        -9.6912
  24   2.0000      -0.352003        -9.5785
  25   2.0000      -0.323471        -8.8021
  26   2.0000      -0.319891        -8.7047
  27   2.0000      -0.307841        -8.3768
  28   2.0000      -0.299036        -8.1372
  29   2.0000      -0.297690        -8.1006
  30   2.0000      -0.271754        -7.3948
  31   2.0000      -0.239302        -6.5117
  32   0.0000      -0.012690        -0.3453
  33   0.0000       0.070572         1.9204
  34   0.0000       0.087546         2.3822
  35   0.0000       0.103147         2.8068
  36   0.0000       0.119052         3.2396

MULLIKEN ATOMIC CHARGES
-----------------------
   0 C :   -0.466977
   1 C :   -0.221070
   2 C :   -0.288902
   3 C :   -0.283468
   4 C :    0.377716
   5 O :   -0.431758
   6 O :   -0.190805
   7 C :   -0.305539
   8 H :    0.143238
   9 H :    0.146992
  10 H :    0.142849
  11 H :    0.133376
  12 H :    0.133926
  13 H :    0.148363
  14 H :    0.153741
  15 H :    0.163108
  16 H :    0.161984
  17 H :    0.147628
  18 H :    0.148701
  19 H :    0.186900
Sum of atomic charges:    0.0000000

LOEWDIN ATOMIC CHARGES
----------------------
   0 C :   -0.422985
   1 C :   -0.315051
   2 C :   -0.290388
   3 C :   -0.229422
   4 C :    0.362775
   5 O :   -0.438923
   6 O :   -0.603818
   7 C :   -0.047095
   8 H :    0.150848
   9 H :    0.149999
  10 H :    0.150676
  11 H :    0.150786
  12 H :    0.150848
  13 H :    0.163613
  14 H :    0.165892
  15 H :    0.182812
  16 H :    0.182027
  17 H :    0.173904
  18 H :    0.171964
  19 H :    0.191537

  Mayer bond orders larger than 0.100000
B(  0-C ,  1-C ) :   0.9008 B(  0-C ,  8-H ) :   0.9826 B(  0-C ,  9-H ) :   0.9760
B(  0-C , 10-H ) :   0.9824 B(  1-C ,  2-C ) :   0.9016 B(  1-C , 11-H ) :   0.9706
B(  1-C , 12-H ) :   0.9739 B(  2-C ,  3-C ) :   0.9533 B(  2-C , 13-H ) :   0.9715
B(  2-C , 14-H ) :   0.9715 B(  3-C ,  4-C ) :   1.0106 B(  3-C , 15-H ) :   0.9417
B(  3-C , 16-H ) :   0.9504 B(  4-C ,  5-O ) :   1.8447 B(  4-C ,  6-O ) :   1.0783
B(  6-O ,  7-C ) :   0.8372 B(  7-C , 17-H ) :   0.9681 B(  7-C , 18-H ) :   0.9622
B(  7-C , 19-H ) :   0.9696

Dispersion correction           -0.004849351
FINAL SINGLE POINT ENERGY      -386.230476097127

DIPOLE MOMENT
-------------

Method             : SCF
Type of density    : Electron Density
Multiplicity       :   1
Irrep              :   0
Energy             :  -386.2376581422247455 Eh
Relativity type    :
Basis              : AO
                                X                 Y                 Z
Electronic contribution:      9.383364674       0.300536206      -0.842272504
Nuclear contribution   :     -9.201966426      -0.500632897       1.514136349
                        -----------------------------------------
Total Dipole Moment    :      0.181398247      -0.200096691       0.671863845
                        -----------------------------------------
Magnitude (a.u.)       :      0.724116728
Magnitude (Debye)      :      1.840558451

Rotational constants in cm-1:             0.252116             0.024801             0.023073
Rotational constants in MHz :          7558.259777           743.526976           691.724541

                             ****ORCA TERMINATED NORMALLY****
TOTAL RUN TIME: 0 days 0 hours 0 minutes 25 seconds 55 msec
