                         Program Version 6.0.0  -   RELEASE  -
|  1> ! r2scan-3c def2/J RI DEFGRID2 scfconv6 printgap
|  2> %output
|  3>     printlevel normal
|  4> end
|  5> %cpcm
|  6>     smd true
|  7>     smdsolvent "water"
|  8> end
|  9> * xyz 0 1
| 10> C -3.9307960811 0.0710689031 -0.2941808805
| 11> C -2.6986339022 -0.2431419853 0.5456161335
| 12> C -1.4095965099 0.0676454423 -0.210757171
| 13> C -0.1725765103 -0.242941208 0.62666918
| 14> C 1.1063319894 0.0362195104 -0.1179524059
| 15> O 1.1841203463 0.3801501666 -1.2778097504
| 16> O 2.1636865723 -0.1537711686 0.6669921637
| 17> C 3.4732979965 0.0546779993 0.1280094635
| 18> H -3.9273694455 -0.5166348092 -1.2091615328
| 19> H -4.8383409494 -0.1569792688 0.2587657682
| 20> H -3.9477800608 1.1239156173 -0.5658667504
| 21> H -2.7276353588 0.3440433846 1.4655302506
| 22> H -2.7088113646 -1.2990099095 0.8229542869
| 23> H -1.3930603951 1.1213622083 -0.4963081285
| 24> H -1.3708522372 -0.5152607991 -1.1331113183
| 25> H -0.1600268904 -1.2953168693 0.9183034141
| 26> H -0.1623255987 0.3469716166 1.5447826626
| 27> H 4.0872773154 -0.7792435036 0.4589938637
| 28> H 3.8636577309 0.9933383743 0.5193251637
| 29> H 3.4238979711 0.0956069959 -0.9606223874
| 30> *
| 31>
| 32>                          ****END OF INPUT****

CARTESIAN COORDINATES (ANGSTROEM)
---------------------------------
  C     -3.930796    0.071069   -0.294181
  C     -2.698634   -0.243142    0.545616
  C     -1.409597    0.067645   -0.210757
  C     -0.172577   -0.242941    0.626669
  C      1.106332    0.036220   -0.117952
  O      1.184120    0.380150   -1.277810
  O      2.163687   -0.153771    0.666992
  C      3.473298    0.054678    0.128009
  H     -3.927369   -0.516635   -1.209162
  H     -4.838341   -0.156979    0.258766
  H     -3.947780    1.123916   -0.565867
  H     -2.727635    0.344043    1.465530
  H     -2.708811   -1.299010    0.822954
  H     -1.393060    1.121362   -0.496308
  H     -1.370852   -0.515261   -1.133111
  H     -0.160027   -1.295317    0.918303
  H     -0.162326    0.346972    1.544783
  H      4.087277   -0.779244    0.458994
  H      3.863658    0.993338    0.519325
  H      3.423898    0.095607   -0.960622

 Total Charge           Charge          ....    0
 Multiplicity           Mult            ....    1
 Number of Electrons    NEL             ....   64
 Basis Dimension        Dim             ....  222

ORBITAL ENERGIES
----------------

  NO   OCC          E(Eh)            E(eV)
   0   2.0000     -19.002369      -517.0807
   1   2.0000     -18.944499      -515.5060
   2   2.0000     -10.162869      -276.5457
   3   2.0000     -10.074735      -274.1475
   4   2.0000     -10.035842      -273.0892
   5   2.0000     -10.021330      -272.6943
   6   2.0000     -10.018049      -272.6050
   7   2.0000     -10.008064      -272.3333
   8   2.0000      -1.077742       -29.3268
   9   2.0000      -0.989557       -26.9272
  10   2.0000      -0.769775       -20.9466
  11   2.0000      -0.723748       -19.6942
  12   2.0000      -0.679915       -18.5014
  13   2.0000      -0.607804       -16.5392
  14   2.0000      -0.545628       -14.8473
  15   2.0000      -0.524833       -14.2814
  16   2.0000      -0.468753       -12.7554
  17   2.0000      -0.462309       -12.5801
  18   2.0000      -0.451449       -12.2846
  19   2.0000      -0.432030       -11.7561
  20   2.0000      -0.394819       -10.7436
  21   2.0000      -0.393785       -10.7154
  22   2.0000      -0.381703       -10.3867
  23   2.0000      -0.355659        -9.6780
  24   2.0000      -0.346204        -9.4207
  25   2.0000      -0.321784        -8.7562
  26   2.0000      -0.317408        -8.6371
  27   2.0000      -0.300883        -8.1874
  28   2.0000      -0.293861        -7.9964
  29   2.0000      -0.290196        -7.8966
  30   2.0000      -0.276578        -7.5261
  31   2.0000      -0.254253        -6.9186
  32   0.0000      -0.019574        -0.5326
  33   0.0000       0.075351         2.0504
  34   0.0000       0.094946         2.5836
  35   0.0000       0.111985         3.0473
  36   0.0000       0.129774         3.5313

MULLIKEN ATOMIC CHARGES
-----------------------
   0 C :   -0.510784
   1 C :   -0.241411
   2 C :   -0.311325
   3 C :   -0.288855
   4 C :    0.411887
   5 O :   -0.513684
   6 O :   -0.208899
   7 C :   -0.322903
   8 H :    0.153633
   9 H :    0.157701
  10 H :    0.153551
  11 H :    0.147533
  12 H :    0.148018
  13 H :    0.156636
  14 H :    0.156247
  15 H :    0.191267
  16 H :    0.187199
  17 H :    0.174062
  18 H :    0.176128
  19 H :    0.184000
Sum of atomic charges:   -0.0000000

LOEWDIN ATOMIC CHARGES
----------------------
   0 C :   -0.432001
   1 C :   -0.313750
   2 C :   -0.294196
   3 C :   -0.226856
   4 C :    0.374028
   5 O :   -0.498632
   6 O :   -0.607287
   7 C :   -0.042297
   8 H :    0.152644
   9 H :    0.152768
  10 H :    0.152600
  11 H :    0.155233
  12 H :    0.155213
  13 H :    0.163149
  14 H :    0.163847
  15 H :    0.194183
  16 H :    0.192744
  17 H :    0.185368
  18 H :    0.182548
  19 H :    0.190693

  Mayer bond orders larger than 0.100000
B(  0-C ,  1-C ) :   0.8857 B(  0-C ,  8-H ) :   0.9811 B(  0-C ,  9-H ) :   0.9729
B(  0-C , 10-H ) :   0.9809 B(  1-C ,  2-C ) :   0.9109 B(  1-C , 11-H ) :   0.9710
B(  1-C , 12-H ) :   0.9741 B(  2-C ,  3-C ) :   0.9356 B(  2-C , 13-H ) :   0.9713
B(  2-C , 14-H ) :   0.9707 B(  3-C ,  4-C ) :   1.0177 B(  3-C , 15-H ) :   0.9286
B(  3-C , 16-H ) :   0.9369 B(  4-C ,  5-O ) :   1.7844 B(  4-C ,  6-O ) :   1.1005
B(  6-O ,  7-C ) :   0.8237 B(  7-C , 17-H ) :   0.9583 B(  7-C , 18-H ) :   0.9536
B(  7-C , 19-H ) :   0.9657

Dispersion correction           -0.004849351
FINAL SINGLE POINT ENERGY      -386.234631207367

DIPOLE MOMENT
-------------

Method             : SCF
Type of density    : Electron Density
Multiplicity       :   1
Irrep              :   0
Energy             :  -386.2418132524646239 Eh
Relativity type    :
Basis              : AO
                                X                 Y                 Z
Electronic contribution:      9.454469092       0.190243087      -0.475840870
Nuclear contribution   :     -9.201966426      -0.500632897       1.514136349
                        -----------------------------------------
Total Dipole Moment    :      0.252502666      -0.310389810       1.038295479
                        -----------------------------------------
Magnitude (a.u.)       :      1.112725003
Magnitude (Debye)      :      2.828322187

Rotational constants in cm-1:             0.252116             0.024801             0.023073
Rotational constants in MHz :          7558.259777           743.526976           691.724541

                             ****ORCA TERMINATED NORMALLY****
TOTAL RUN TIME: 0 days 0 hours 0 minutes 32 seconds 652 msec
