                         Program Version 6.0.0  -   RELEASE  -
|  1> ! r2scan-3c def2/J RI DEFGRID2 scfconv6 printgap
|  2> %output
|  3>     printlevel normal
|  4> end
|  5> * xyz 0 1
|  6> C 2.3857691735 0.6226955983 0.6244492277
|  7> C 1.1331168312 -0.132811583 0.17300592
|  8> C 1.3364936982 -0.6525845862 -1.2587239738
|  9> N 0.0036875559 0.7620310354 0.3628130227
| 10> C -1.3729316405 0.2900725818 0.2785650181
| 11> C -1.5827054302 -0.9971036782 1.071631641
| 12> C -1.9260537952 0.1376055774 -1.1480595325
| 13> H 2.2348993008 1.0248316922 1.6217642301
| 14> H 3.2455392125 -0.0412907555 0.6368857034
| 15> H 2.5922978647 1.4476991732 -0.0538531391
| 16> H 0.9891509752 -0.9865515627 0.8421466179
| 17> H 1.3277166044 0.1752892377 -1.9656460546
| 18> H 0.5596755679 -1.3584664813 -1.5395537008
| 19> H 2.2952363709 -1.1599268557 -1.3336240314
| 20> H 0.1139280842 1.5757864314 -0.2329889491
| 21> H -1.9592237174 1.0835997269 0.7664464756
| 22> H -1.1275422431 -1.8458853724 0.5668109969
| 23> H -1.1505162093 -0.900031981 2.0636524924
| 24> H -2.6472469346 -1.1907915164 1.171861398
| 25> H -1.7146377676 1.0298542094 -1.7344468784
| 26> H -3.004015035 0.0012283657 -1.1092810912
| 27> H -1.49296136 -0.7205825654 -1.6541202169
| 28> *
| 29>
| 30>                          ****END OF INPUT****

CARTESIAN COORDINATES (ANGSTROEM)
---------------------------------
  C      2.385769    0.622696    0.624449
  C      1.133117   -0.132812    0.173006
  C      1.336494   -0.652585   -1.258724
  N      0.003688    0.762031    0.362813
  C     -1.372932    0.290073    0.278565
  C     -1.582705   -0.997104    1.071632
  C     -1.926054    0.137606   -1.148060
  H      2.234899    1.024832    1.621764
  H      3.245539   -0.041291    0.636886
  H      2.592298    1.447699   -0.053853
  H      0.989151   -0.986552    0.842147
  H      1.327717    0.175289   -1.965646
  H      0.559676   -1.358466   -1.539554
  H      2.295236   -1.159927   -1.333624
  H      0.113928    1.575786   -0.232989
  H     -1.959224    1.083600    0.766446
  H     -1.127542   -1.845885    0.566811
  H     -1.150516   -0.900032    2.063652
  H     -2.647247   -1.190792    1.171861
  H     -1.714638    1.029854   -1.734447
  H     -3.004015    0.001228   -1.109281
  H     -1.492961   -0.720583   -1.654120

 Total Charge           Charge          ....    0
 Multiplicity           Mult            ....    1
 Number of Electrons    NEL             ....   58
 Basis Dimension        Dim             ....  213

ORBITAL ENERGIES
----------------

  NO   OCC          E(Eh)            E(eV)
   0   2.0000     -14.130315      -384.5054
   1   2.0000     -10.056235      -273.6441
   2   2.0000     -10.054142      -273.5871
   3   2.0000     -10.015616      -272.5388
   4   2.0000     -10.012267      -272.4476
   5   2.0000     -10.011983      -272.4399
   6   2.0000     -10.010188      -272.3911
   7   2.0000      -0.867803       -23.6141
   8   2.0000      -0.749659       -20.3993
   9   2.0000      -0.696055       -18.9406
  10   2.0000      -0.652257       -17.7488
  11   2.0000      -0.645791       -17.5729
  12   2.0000      -0.564846       -15.3702
  13   2.0000      -0.524356       -14.2685
  14   2.0000      -0.453682       -12.3453
  15   2.0000      -0.428986       -11.6733
  16   2.0000      -0.411928       -11.2091
  17   2.0000      -0.396958       -10.8018
  18   2.0000      -0.378926       -10.3111
  19   2.0000      -0.365749        -9.9525
  20   2.0000      -0.356390        -9.6979
  21   2.0000      -0.352786        -9.5998
  22   2.0000      -0.344873        -9.3845
  23   2.0000      -0.328000        -8.9253
  24   2.0000      -0.316065        -8.6006
  25   2.0000      -0.304504        -8.2860
  26   2.0000      -0.294992        -8.0271
  27   2.0000      -0.286232        -7.7888
  28   2.0000      -0.177661        -4.8344
  29   0.0000       0.073864         2.0100
  30   0.0000       0.100253         2.7280
  31   0.0000       0.118148         3.2150
  32   0.0000       0.121295         3.3006
  33   0.0000       0.132647         3.6095

MULLIKEN ATOMIC CHARGES
-----------------------
   0 C :   -0.473967
   1 C :   -0.120072
   2 C :   -0.437090
   3 N :   -0.226708
   4 C :   -0.071087
   5 C :   -0.493799
   6 C :   -0.454032
   7 H :    0.162877
   8 H :    0.141623
   9 H :    0.138746
  10 H :    0.151908
  11 H :    0.147842
  12 H :    0.139212
  13 H :    0.141977
  14 H :    0.213155
  15 H :    0.155983
  16 H :    0.151620
  17 H :    0.162401
  18 H :    0.146845
  19 H :    0.138811
  20 H :    0.142654
  21 H :    0.141101
Sum of atomic charges:    0.0000000

LOEWDIN ATOMIC CHARGES
----------------------
   0 C :   -0.385037
   1 C :   -0.018709
   2 C :   -0.407054
   3 N :   -0.830618
   4 C :   -0.019992
   5 C :   -0.388739
   6 C :   -0.407080
   7 H :    0.162676
   8 H :    0.151489
   9 H :    0.152297
  10 H :    0.178452
  11 H :    0.154503
  12 H :    0.149872
  13 H :    0.153461
  14 H :    0.249395
  15 H :    0.176643
  16 H :    0.152935
  17 H :    0.161884
  18 H :    0.156736
  19 H :    0.151923
  20 H :    0.153067
  21 H :    0.151896

  Mayer bond orders larger than 0.100000
B(  0-C ,  1-C ) :   0.9671 B(  0-C ,  7-H ) :   0.9739 B(  0-C ,  8-H ) :   0.9786
B(  0-C ,  9-H ) :   0.9732 B(  1-C ,  2-C ) :   0.8467 B(  1-C ,  3-N ) :   0.9414
B(  1-C , 10-H ) :   0.9657 B(  2-C , 11-H ) :   0.9797 B(  2-C , 12-H ) :   0.9701
B(  2-C , 13-H ) :   0.9712 B(  3-N ,  4-C ) :   0.9654 B(  3-N , 14-H ) :   0.9173
B(  4-C ,  5-C ) :   0.9091 B(  4-C ,  6-C ) :   0.9179 B(  4-C , 15-H ) :   0.9747
B(  5-C , 16-H ) :   0.9746 B(  5-C , 17-H ) :   0.9721 B(  5-C , 18-H ) :   0.9668
B(  6-C , 19-H ) :   0.9746 B(  6-C , 20-H ) :   0.9700 B(  6-C , 21-H ) :   0.9697

Dispersion correction           -0.006178703
FINAL SINGLE POINT ENERGY      -292.314340818089

DIPOLE MOMENT
-------------

Method             : SCF
Type of density    : Electron Density
Multiplicity       :   1
Irrep              :   0
Energy             :  -292.3226827314093725 Eh
Relativity type    :
Basis              : AO
                                X                 Y                 Z
Electronic contribution:     -0.311318456       1.671149004       1.587001784
Nuclear contribution   :      0.246100847      -1.745732155      -1.831136267
                        -----------------------------------------
Total Dipole Moment    :     -0.065217610      -0.074583151      -0.244134483
                        -----------------------------------------
Magnitude (a.u.)       :      0.263472254
Magnitude (Debye)      :      0.669693249

Rotational constants in cm-1:             0.130327             0.054286             0.048741
Rotational constants in MHz :          3907.107661          1627.451230          1461.203603

                             ****ORCA TERMINATED NORMALLY****
TOTAL RUN TIME: 0 days 0 hours 0 minutes 27 seconds 926 msec
