                         Program Version 6.0.0  -   RELEASE  -
|  1> ! r2scan-3c def2/J RI DEFGRID2 scfconv6 printgap
|  2> %output
|  3>     printlevel normal
|  4> end
|  5> %cpcm
|  6>     smd true
|  7>     smdsolvent "water"
|  8> end
|  9> * xyz 0 1
| 10> C 2.3857691735 0.6226955983 0.6244492277
| 11> C 1.1331168312 -0.132811583 0.17300592
| 12> C 1.3364936982 -0.6525845862 -1.2587239738
| 13> N 0.0036875559 0.7620310354 0.3628130227
| 14> C -1.3729316405 0.2900725818 0.2785650181
| 15> C -1.5827054302 -0.9971036782 1.071631641
| 16> C -1.9260537952 0.1376055774 -1.1480595325
| 17> H 2.2348993008 1.0248316922 1.6217642301
| 18> H 3.2455392125 -0.0412907555 0.6368857034
| 19> H 2.5922978647 1.4476991732 -0.0538531391
| 20> H 0.9891509752 -0.9865515627 0.8421466179
| 21> H 1.3277166044 0.1752892377 -1.9656460546
| 22> H 0.5596755679 -1.3584664813 -1.5395537008
| 23> H 2.2952363709 -1.1599268557 -1.3336240314
| 24> H 0.1139280842 1.5757864314 -0.2329889491
| 25> H -1.9592237174 1.0835997269 0.7664464756
| 26> H -1.1275422431 -1.8458853724 0.5668109969
| 27> H -1.1505162093 -0.900031981 2.0636524924
| 28> H -2.6472469346 -1.1907915164 1.171861398
| 29> H -1.7146377676 1.0298542094 -1.7344468784
| 30> H -3.004015035 0.0012283657 -1.1092810912
| 31> H -1.49296136 -0.7205825654 -1.6541202169
| 32> *
| 33>
| 34>                          ****END OF INPUT****

CARTESIAN COORDINATES (ANGSTROEM)
---------------------------------
  C      2.385769    0.622696    0.624449
  C      1.133117   -0.132812    0.173006
  C      1.336494   -0.652585   -1.258724
  N      0.003688    0.762031    0.362813
  C     -1.372932    0.290073    0.278565
  C     -1.582705   -0.997104    1.071632
  C     -1.926054    0.137606   -1.148060
  H      2.234899    1.024832    1.621764
  H      3.245539   -0.041291    0.636886
  H      2.592298    1.447699   -0.053853
  H      0.989151   -0.986552    0.842147
  H      1.327717    0.175289   -1.965646
  H      0.559676   -1.358466   -1.539554
  H      2.295236   -1.159927   -1.333624
  H      0.113928    1.575786   -0.232989
  H     -1.959224    1.083600    0.766446
  H     -1.127542   -1.845885    0.566811
  H     -1.150516   -0.900032    2.063652
  H     -2.647247   -1.190792    1.171861
  H     -1.714638    1.029854   -1.734447
  H     -3.004015    0.001228   -1.109281
  H     -1.492961   -0.720583   -1.654120

 Total Charge           Charge          ....    0
 Multiplicity           Mult            ....    1
 Number of Electrons    NEL             ....   58
 Basis Dimension        Dim             ....  213

ORBITAL ENERGIES
----------------

  NO   OCC          E(Eh)            E(eV)
   0   2.0000     -14.126798      -384.4097
   1   2.0000     -10.049810      -273.4692
   2   2.0000     -10.047758      -273.4134
   3   2.0000     -10.007766      -272.3251
   4   2.0000     -10.005083      -272.2521
   5   2.0000     -10.003178      -272.2003
   6   2.0000     -10.003162      -272.1999
   7   2.0000      -0.862757       -23.4768
   8   2.0000      -0.742986       -20.2177
   9   2.0000      -0.689194       -18.7539
  10   2.0000      -0.644772       -17.5451
  11   2.0000      -0.639430       -17.3998
  12   2.0000      -0.558823       -15.2063
  13   2.0000      -0.517395       -14.0790
  14   2.0000      -0.446847       -12.1593
  15   2.0000      -0.422021       -11.4838
  16   2.0000      -0.406303       -11.0561
  17   2.0000      -0.390108       -10.6154
  18   2.0000      -0.371182       -10.1004
  19   2.0000      -0.358482        -9.7548
  20   2.0000      -0.348351        -9.4791
  21   2.0000      -0.345691        -9.4067
  22   2.0000      -0.336664        -9.1611
  23   2.0000      -0.321408        -8.7460
  24   2.0000      -0.310360        -8.4453
  25   2.0000      -0.297459        -8.0943
  26   2.0000      -0.287432        -7.8214
  27   2.0000      -0.279272        -7.5994
  28   2.0000      -0.176876        -4.8130
  29   0.0000       0.082937         2.2568
  30   0.0000       0.110705         3.0124
  31   0.0000       0.125927         3.4266
  32   0.0000       0.128781         3.5043
  33   0.0000       0.139289         3.7902

MULLIKEN ATOMIC CHARGES
-----------------------
   0 C :   -0.520810
   1 C :   -0.079496
   2 C :   -0.501902
   3 N :   -0.303299
   4 C :   -0.048634
   5 C :   -0.522895
   6 C :   -0.512661
   7 H :    0.157507
   8 H :    0.157537
   9 H :    0.158670
  10 H :    0.162548
  11 H :    0.163663
  12 H :    0.157286
  13 H :    0.153314
  14 H :    0.262691
  15 H :    0.158844
  16 H :    0.167374
  17 H :    0.161472
  18 H :    0.162202
  19 H :    0.155708
  20 H :    0.154368
  21 H :    0.156515
Sum of atomic charges:    0.0000000

LOEWDIN ATOMIC CHARGES
----------------------
   0 C :   -0.394836
   1 C :   -0.017224
   2 C :   -0.414222
   3 N :   -0.849296
   4 C :   -0.019485
   5 C :   -0.396092
   6 C :   -0.414607
   7 H :    0.158485
   8 H :    0.156162
   9 H :    0.157561
  10 H :    0.181038
  11 H :    0.158184
  12 H :    0.154586
  13 H :    0.156204
  14 H :    0.259257
  15 H :    0.177366
  16 H :    0.158036
  17 H :    0.160454
  18 H :    0.160578
  19 H :    0.156337
  20 H :    0.156099
  21 H :    0.155416

  Mayer bond orders larger than 0.100000
B(  0-C ,  1-C ) :   0.9442 B(  0-C ,  7-H ) :   0.9743 B(  0-C ,  8-H ) :   0.9748
B(  0-C ,  9-H ) :   0.9732 B(  1-C ,  2-C ) :   0.8353 B(  1-C ,  3-N ) :   0.9499
B(  1-C , 10-H ) :   0.9657 B(  2-C , 11-H ) :   0.9802 B(  2-C , 12-H ) :   0.9679
B(  2-C , 13-H ) :   0.9692 B(  3-N ,  4-C ) :   0.9739 B(  3-N , 14-H ) :   0.9027
B(  4-C ,  5-C ) :   0.9029 B(  4-C ,  6-C ) :   0.9105 B(  4-C , 15-H ) :   0.9730
B(  5-C , 16-H ) :   0.9709 B(  5-C , 17-H ) :   0.9684 B(  5-C , 18-H ) :   0.9653
B(  6-C , 19-H ) :   0.9722 B(  6-C , 20-H ) :   0.9674 B(  6-C , 21-H ) :   0.9705

Dispersion correction           -0.006178703
FINAL SINGLE POINT ENERGY      -292.317115742804

DIPOLE MOMENT
-------------

Method             : SCF
Type of density    : Electron Density
Multiplicity       :   1
Irrep              :   0
Energy             :  -292.3254576561245699 Eh
Relativity type    :
Basis              : AO
                                X                 Y                 Z
Electronic contribution:     -0.327312259       1.619421417       1.397120309
Nuclear contribution   :      0.246100847      -1.745732155      -1.831136267
                        -----------------------------------------
Total Dipole Moment    :     -0.081211412      -0.126310738      -0.434015958
                        -----------------------------------------
Magnitude (a.u.)       :      0.459259783
Magnitude (Debye)      :      1.167345597

Rotational constants in cm-1:             0.130327             0.054286             0.048741
Rotational constants in MHz :          3907.107661          1627.451230          1461.203603

                             ****ORCA TERMINATED NORMALLY****
TOTAL RUN TIME: 0 days 0 hours 0 minutes 31 seconds 774 msec
