                         Program Version 6.0.0  -   RELEASE  -
|  1> ! pbe def2-sv(p) def2/J RI DEFGRID1 loosescf d4 GCP(DFT/SV(P)) printgap
|  2> %output
|  3>     printlevel normal
|  4> end
|  5> * xyz 0 1
|  6> C -3.3337535978 -0.9015902277 0.4518503878
|  7> C -2.8169061762 0.4682727071 0.0259158464
|  8> C -1.4117904485 0.4170676496 -0.5723239937
|  9> C -0.3500185193 -0.0101346735 0.4406133119
| 10> C 1.0454375069 0.216909098 -0.0793131646
| 11> O 1.3656012168 1.0703206148 -0.8795683376
| 12> O 1.9029108124 -0.6357228056 0.4723205743
| 13> C 3.2911588664 -0.5480699528 0.1331702148
| 14> H -3.2939193731 -1.5978671725 -0.3825765362
| 15> H -2.74295573 -1.3059600198 1.2688889133
| 16> H -4.365654671 -0.8255495985 0.7852664721
| 17> H -3.4924141408 0.8849601954 -0.723572075
| 18> H -2.8199787359 1.1423100227 0.884705682
| 19> H -1.1415697591 1.4049664757 -0.9516281035
| 20> H -1.4001016913 -0.2727547068 -1.4185419974
| 21> H -0.4442103973 -1.0586430751 0.7187370893
| 22> H -0.4487192512 0.5920103489 1.3479371911
| 23> H 3.5635297311 -1.4505438757 -0.4116520726
| 24> H 3.8486668781 -0.4848901312 1.0651201084
| 25> H 3.466141169 0.3339752317 -0.4837367652
| 26> *
| 27>
| 28>                          ****END OF INPUT****

CARTESIAN COORDINATES (ANGSTROEM)
---------------------------------
  C     -3.333754   -0.901590    0.451850
  C     -2.816906    0.468273    0.025916
  C     -1.411790    0.417068   -0.572324
  C     -0.350019   -0.010135    0.440613
  C      1.045438    0.216909   -0.079313
  O      1.365601    1.070321   -0.879568
  O      1.902911   -0.635723    0.472321
  C      3.291159   -0.548070    0.133170
  H     -3.293919   -1.597867   -0.382577
  H     -2.742956   -1.305960    1.268889
  H     -4.365655   -0.825550    0.785266
  H     -3.492414    0.884960   -0.723572
  H     -2.819979    1.142310    0.884706
  H     -1.141570    1.404966   -0.951628
  H     -1.400102   -0.272755   -1.418542
  H     -0.444210   -1.058643    0.718737
  H     -0.448719    0.592010    1.347937
  H      3.563530   -1.450544   -0.411652
  H      3.848667   -0.484890    1.065120
  H      3.466141    0.333975   -0.483737

 Total Charge           Charge          ....    0
 Multiplicity           Mult            ....    1
 Number of Electrons    NEL             ....   64
 Basis Dimension        Dim             ....  136

ORBITAL ENERGIES
----------------

  NO   OCC          E(Eh)            E(eV)
   0   2.0000     -18.797962      -511.5185
   1   2.0000     -18.733831      -509.7734
   2   2.0000     -10.004361      -272.2325
   3   2.0000      -9.938199      -270.4322
   4   2.0000      -9.895866      -269.2802
   5   2.0000      -9.884970      -268.9837
   6   2.0000      -9.884471      -268.9701
   7   2.0000      -9.874959      -268.7113
   8   2.0000      -1.003226       -27.2992
   9   2.0000      -0.909441       -24.7471
  10   2.0000      -0.729133       -19.8407
  11   2.0000      -0.685321       -18.6485
  12   2.0000      -0.644095       -17.5267
  13   2.0000      -0.583080       -15.8664
  14   2.0000      -0.517922       -14.0934
  15   2.0000      -0.497294       -13.5321
  16   2.0000      -0.451273       -12.2798
  17   2.0000      -0.438755       -11.9391
  18   2.0000      -0.420582       -11.4446
  19   2.0000      -0.405151       -11.0247
  20   2.0000      -0.394192       -10.7265
  21   2.0000      -0.384239       -10.4557
  22   2.0000      -0.356539        -9.7019
  23   2.0000      -0.348356        -9.4792
  24   2.0000      -0.343359        -9.3433
  25   2.0000      -0.316289        -8.6067
  26   2.0000      -0.301099        -8.1933
  27   2.0000      -0.288990        -7.8638
  28   2.0000      -0.285968        -7.7816
  29   2.0000      -0.283098        -7.7035
  30   2.0000      -0.255271        -6.9463
  31   2.0000      -0.221124        -6.0171
  32   0.0000      -0.017723        -0.4823
  33   0.0000       0.037718         1.0264
  34   0.0000       0.057860         1.5744
  35   0.0000       0.069834         1.9003
  36   0.0000       0.072420         1.9706

MULLIKEN ATOMIC CHARGES
-----------------------
   0 C :   -0.293766
   1 C :   -0.162237
   2 C :   -0.178670
   3 C :   -0.183262
   4 C :    0.119604
   5 O :   -0.201337
   6 O :   -0.240282
   7 C :   -0.131682
   8 H :    0.098411
   9 H :    0.107869
  10 H :    0.104117
  11 H :    0.087641
  12 H :    0.082548
  13 H :    0.105590
  14 H :    0.087696
  15 H :    0.107831
  16 H :    0.112051
  17 H :    0.122114
  18 H :    0.122008
  19 H :    0.133756
Sum of atomic charges:    0.0000000

LOEWDIN ATOMIC CHARGES
----------------------
   0 C :   -0.344061
   1 C :   -0.233372
   2 C :   -0.223872
   3 C :   -0.250254
   4 C :    0.038798
   5 O :   -0.167854
   6 O :   -0.076614
   7 C :   -0.209526
   8 H :    0.117357
   9 H :    0.115897
  10 H :    0.119947
  11 H :    0.117565
  12 H :    0.113707
  13 H :    0.125069
  14 H :    0.117727
  15 H :    0.131713
  16 H :    0.143028
  17 H :    0.120135
  18 H :    0.120366
  19 H :    0.124243

  Mayer bond orders larger than 0.100000
B(  0-C ,  1-C ) :   1.1435 B(  0-C ,  8-H ) :   0.9554 B(  0-C ,  9-H ) :   0.9529
B(  0-C , 10-H ) :   0.9519 B(  1-C ,  2-C ) :   1.1274 B(  1-C , 11-H ) :   0.9279
B(  1-C , 12-H ) :   0.9262 B(  2-C ,  3-C ) :   1.1263 B(  2-C , 13-H ) :   0.9122
B(  2-C , 14-H ) :   0.9272 B(  3-C ,  4-C ) :   1.0097 B(  3-C , 15-H ) :   0.9042
B(  3-C , 16-H ) :   0.8877 B(  4-C ,  5-O ) :   2.0659 B(  4-C ,  6-O ) :   1.2215
B(  6-O ,  7-C ) :   0.9360 B(  7-C , 17-H ) :   0.9608 B(  7-C , 18-H ) :   0.9610
B(  7-C , 19-H ) :   0.9292

Dispersion correction           -0.014743188
FINAL SINGLE POINT ENERGY      -385.451928903460

DIPOLE MOMENT
-------------

Method             : SCF
Type of density    : Electron Density
Multiplicity       :   1
Irrep              :   0
Energy             :  -385.5272704642762278 Eh
Relativity type    :
Basis              : AO
                                X                 Y                 Z
Electronic contribution:      8.770302309       1.978346699      -1.149032058
Nuclear contribution   :     -8.649451895      -2.468426615       1.587857611
                        -----------------------------------------
Total Dipole Moment    :      0.120850414      -0.490079916       0.438825553
                        -----------------------------------------
Magnitude (a.u.)       :      0.668843040
Magnitude (Debye)      :      1.700063901

Rotational constants in cm-1:             0.183836             0.028087             0.025319
Rotational constants in MHz :          5511.250577           842.018800           759.054200

                             ****ORCA TERMINATED NORMALLY****
TOTAL RUN TIME: 0 days 0 hours 0 minutes 9 seconds 821 msec
