                         Program Version 6.0.0  -   RELEASE  -
|  1> ! pbe def2-sv(p) def2/J RI DEFGRID1 loosescf d4 GCP(DFT/SV(P)) printgap
|  2> %output
|  3>     printlevel normal
|  4> end
|  5> * xyz 0 1
|  6> C -4.5167348169 -1.1095836516 -0.4480442609
|  7> C -3.7828062676 -2.2725643901 -0.259605827
|  8> C -2.4225331674 -2.202206633 -0.0228540735
|  9> C -1.770573862 -0.9717922843 0.0262392643
| 10> C -2.5118902837 0.1993419973 -0.1657395614
| 11> C -3.8835023516 0.1177942876 -0.3999123976
| 12> C -1.8610922649 1.514482001 -0.1237190409
| 13> O -2.5029231253 2.5537964672 -0.2654646225
| 14> C -0.4031657187 1.5285010352 0.0884207391
| 15> C 0.2182957363 2.7651853943 0.0693472207
| 16> C 1.5950470153 2.8637965461 0.2511406865
| 17> C 2.3450981463 1.7367690545 0.4536220163
| 18> C 1.7538412567 0.4498403222 0.4916563844
| 19> C 0.3411860119 0.3434640004 0.2979343371
| 20> C -0.3179883729 -0.9449186343 0.2908752419
| 21> O 0.2738556747 -2.0202055258 0.4908966539
| 22> N 2.4902760845 -0.6422212709 0.7368494659
| 23> C 3.9283140673 -0.7077822217 0.7880182089
| 24> C 4.5711981325 -0.6620556552 -0.6114214046
| 25> O 4.2149751043 -1.7605279429 -1.4172314961
| 26> H -5.5783516694 -1.1614139701 -0.6314775831
| 27> H -4.2721813398 -3.2331684632 -0.2965293173
| 28> H -1.834676925 -3.0953451818 0.1287941859
| 29> H -4.4290297372 1.0389716391 -0.5423187944
| 30> H -0.3898802378 3.6418236114 -0.0923552068
| 31> H 2.0687164962 3.8326653 0.2297467208
| 32> H 3.4090965003 1.8299014463 0.5899966952
| 33> H 1.9823211306 -1.5214095097 0.6615137882
| 34> H 4.1896465233 -1.6482925893 1.2757746391
| 35> H 4.327392654 0.111961964 1.388224146
| 36> H 5.6609214369 -0.597622458 -0.5022680792
| 37> H 4.2182877165 0.2176018323 -1.1544310082
| 38> H 4.5654776012 -2.5734556108 -1.0271168491
| 39> *
| 40>
| 41>                          ****END OF INPUT****

CARTESIAN COORDINATES (ANGSTROEM)
---------------------------------
  C     -4.516735   -1.109584   -0.448044
  C     -3.782806   -2.272564   -0.259606
  C     -2.422533   -2.202207   -0.022854
  C     -1.770574   -0.971792    0.026239
  C     -2.511890    0.199342   -0.165740
  C     -3.883502    0.117794   -0.399912
  C     -1.861092    1.514482   -0.123719
  O     -2.502923    2.553796   -0.265465
  C     -0.403166    1.528501    0.088421
  C      0.218296    2.765185    0.069347
  C      1.595047    2.863797    0.251141
  C      2.345098    1.736769    0.453622
  C      1.753841    0.449840    0.491656
  C      0.341186    0.343464    0.297934
  C     -0.317988   -0.944919    0.290875
  O      0.273856   -2.020206    0.490897
  N      2.490276   -0.642221    0.736849
  C      3.928314   -0.707782    0.788018
  C      4.571198   -0.662056   -0.611421
  O      4.214975   -1.760528   -1.417231
  H     -5.578352   -1.161414   -0.631478
  H     -4.272181   -3.233168   -0.296529
  H     -1.834677   -3.095345    0.128794
  H     -4.429030    1.038972   -0.542319
  H     -0.389880    3.641824   -0.092355
  H      2.068716    3.832665    0.229747
  H      3.409097    1.829901    0.589997
  H      1.982321   -1.521410    0.661514
  H      4.189647   -1.648293    1.275775
  H      4.327393    0.111962    1.388224
  H      5.660921   -0.597622   -0.502268
  H      4.218288    0.217602   -1.154431
  H      4.565478   -2.573456   -1.027117

 Total Charge           Charge          ....    0
 Multiplicity           Mult            ....    1
 Number of Electrons    NEL             ....  140
 Basis Dimension        Dim             ....  306

ORBITAL ENERGIES
----------------

  NO   OCC          E(Eh)            E(eV)
   0   2.0000     -18.756315      -510.3853
   1   2.0000     -18.746542      -510.1193
   2   2.0000     -18.740739      -509.9614
   3   2.0000     -14.016074      -381.3968
   4   2.0000      -9.975396      -271.4443
   5   2.0000      -9.972305      -271.3602
   6   2.0000      -9.957232      -270.9500
   7   2.0000      -9.945797      -270.6389
   8   2.0000      -9.939646      -270.4715
   9   2.0000      -9.911448      -269.7042
  10   2.0000      -9.910361      -269.6746
  11   2.0000      -9.910001      -269.6648
  12   2.0000      -9.909202      -269.6431
  13   2.0000      -9.908354      -269.6200
  14   2.0000      -9.906903      -269.5805
  15   2.0000      -9.906160      -269.5603
  16   2.0000      -9.905860      -269.5522
  17   2.0000      -9.902998      -269.4743
  18   2.0000      -9.902121      -269.4504
  19   2.0000      -9.893465      -269.2149
  20   2.0000      -0.938894       -25.5486
  21   2.0000      -0.934114       -25.4185
  22   2.0000      -0.933090       -25.3907
  23   2.0000      -0.870947       -23.6997
  24   2.0000      -0.795008       -21.6333
  25   2.0000      -0.780168       -21.2295
  26   2.0000      -0.723465       -19.6865
  27   2.0000      -0.702306       -19.1107
  28   2.0000      -0.686025       -18.6677
  29   2.0000      -0.682029       -18.5590
  30   2.0000      -0.655771       -17.8444
  31   2.0000      -0.607759       -16.5380
  32   2.0000      -0.596773       -16.2390
  33   2.0000      -0.579304       -15.7637
  34   2.0000      -0.571977       -15.5643
  35   2.0000      -0.535812       -14.5802
  36   2.0000      -0.521726       -14.1969
  37   2.0000      -0.497216       -13.5299
  38   2.0000      -0.494775       -13.4635
  39   2.0000      -0.471805       -12.8385
  40   2.0000      -0.459405       -12.5010
  41   2.0000      -0.434599       -11.8260
  42   2.0000      -0.432998       -11.7825
  43   2.0000      -0.428068       -11.6483
  44   2.0000      -0.422672       -11.5015
  45   2.0000      -0.415787       -11.3141
  46   2.0000      -0.406753       -11.0683
  47   2.0000      -0.398042       -10.8313
  48   2.0000      -0.395403       -10.7595
  49   2.0000      -0.386185       -10.5086
  50   2.0000      -0.381415       -10.3788
  51   2.0000      -0.369843       -10.0639
  52   2.0000      -0.365393        -9.9429
  53   2.0000      -0.357245        -9.7211
  54   2.0000      -0.349708        -9.5160
  55   2.0000      -0.347730        -9.4622
  56   2.0000      -0.336556        -9.1581
  57   2.0000      -0.329547        -8.9674
  58   2.0000      -0.321030        -8.7357
  59   2.0000      -0.315358        -8.5813
  60   2.0000      -0.306556        -8.3418
  61   2.0000      -0.294623        -8.0171
  62   2.0000      -0.279099        -7.5947
  63   2.0000      -0.247522        -6.7354
  64   2.0000      -0.240516        -6.5448
  65   2.0000      -0.238930        -6.5016
  66   2.0000      -0.231435        -6.2977
  67   2.0000      -0.215620        -5.8673
  68   2.0000      -0.203407        -5.5350
  69   2.0000      -0.186441        -5.0733
  70   0.0000      -0.124210        -3.3799
  71   0.0000      -0.076774        -2.0891
  72   0.0000      -0.049940        -1.3589
  73   0.0000      -0.029931        -0.8145
  74   0.0000       0.013085         0.3561

MULLIKEN ATOMIC CHARGES
-----------------------
   0 C :   -0.021240
   1 C :   -0.016362
   2 C :   -0.133004
   3 C :    0.050667
   4 C :    0.038261
   5 C :   -0.126153
   6 C :    0.085393
   7 O :   -0.151097
   8 C :    0.017911
   9 C :   -0.138920
  10 C :   -0.008776
  11 C :   -0.156373
  12 C :    0.078279
  13 C :    0.052433
  14 C :    0.076087
  15 O :   -0.217952
  16 N :   -0.213018
  17 C :   -0.103727
  18 C :    0.012773
  19 O :   -0.430620
  20 H :    0.061992
  21 H :    0.061576
  22 H :    0.058363
  23 H :    0.057907
  24 H :    0.054989
  25 H :    0.058219
  26 H :    0.034990
  27 H :    0.241647
  28 H :    0.093033
  29 H :    0.102806
  30 H :    0.080394
  31 H :    0.105951
  32 H :    0.293572
Sum of atomic charges:   -0.0000000

LOEWDIN ATOMIC CHARGES
----------------------
   0 C :   -0.108158
   1 C :   -0.105195
   2 C :   -0.088376
   3 C :   -0.044037
   4 C :   -0.053429
   5 C :   -0.083211
   6 C :    0.058985
   7 O :   -0.131594
   8 C :   -0.044079
   9 C :   -0.111733
  10 C :   -0.096523
  11 C :   -0.148895
  12 C :    0.036372
  13 C :   -0.087966
  14 C :    0.058030
  15 O :   -0.174841
  16 N :   -0.124851
  17 C :   -0.182265
  18 C :   -0.134481
  19 O :   -0.334775
  20 H :    0.128483
  21 H :    0.128322
  22 H :    0.134882
  23 H :    0.135675
  24 H :    0.134895
  25 H :    0.129413
  26 H :    0.125597
  27 H :    0.240904
  28 H :    0.120779
  29 H :    0.120855
  30 H :    0.098676
  31 H :    0.120002
  32 H :    0.282543

  Mayer bond orders larger than 0.100000
B(  0-C ,  1-C ) :   1.3269 B(  0-C ,  5-C ) :   1.3368 B(  0-C , 20-H ) :   0.9668
B(  1-C ,  2-C ) :   1.3357 B(  1-C , 21-H ) :   0.9665 B(  2-C ,  3-C ) :   1.3822
B(  2-C , 22-H ) :   0.9541 B(  3-C ,  4-C ) :   1.3351 B(  3-C , 14-C ) :   0.9794
B(  4-C ,  5-C ) :   1.3784 B(  4-C ,  6-C ) :   0.9566 B(  5-C , 23-H ) :   0.9569
B(  6-C ,  7-O ) :   2.1553 B(  6-C ,  8-C ) :   0.9493 B(  8-C ,  9-C ) :   1.4258
B(  8-C , 13-C ) :   1.3034 B(  9-C , 10-C ) :   1.2332 B(  9-C , 24-H ) :   0.9566
B( 10-C , 11-C ) :   1.3862 B( 10-C , 25-H ) :   0.9656 B( 11-C , 12-C ) :   1.2426
B( 11-C , 26-H ) :   0.9508 B( 12-C , 13-C ) :   1.2186 B( 12-C , 16-N ) :   1.3926
B( 13-C , 14-C ) :   1.0236 B( 14-C , 15-O ) :   1.9622 B( 15-O , 27-H ) :   0.1431
B( 16-N , 17-C ) :   1.0479 B( 16-N , 27-H ) :   0.7643 B( 17-C , 18-C ) :   1.0739
B( 17-C , 28-H ) :   0.9248 B( 17-C , 29-H ) :   0.8976 B( 18-C , 19-O ) :   1.0765
B( 18-C , 30-H ) :   0.9226 B( 18-C , 31-H ) :   0.9180 B( 19-O , 32-H ) :   0.8536

Dispersion correction           -0.046731535
FINAL SINGLE POINT ENERGY      -896.121983519759

DIPOLE MOMENT
-------------

Method             : SCF
Type of density    : Electron Density
Multiplicity       :   1
Irrep              :   0
Energy             :  -896.2186292434778352 Eh
Relativity type    :
Basis              : AO
                                X                 Y                 Z
Electronic contribution:    -11.768480991       2.320473199       0.450968839
Nuclear contribution   :     13.100317244      -2.984237808       0.012249492
                        -----------------------------------------
Total Dipole Moment    :      1.331836253      -0.663764609       0.463218331
                        -----------------------------------------
Magnitude (a.u.)       :      1.558506491
Magnitude (Debye)      :      3.961408681

Rotational constants in cm-1:             0.020461             0.007847             0.005974
Rotational constants in MHz :           613.405873           235.233998           179.092161

                             ****ORCA TERMINATED NORMALLY****
TOTAL RUN TIME: 0 days 0 hours 0 minutes 34 seconds 912 msec
