                         Program Version 6.0.0  -   RELEASE  -
|  1> ! r2scan-3c def2/J RI DEFGRID2 scfconv6 printgap
|  2> %output
|  3>     printlevel normal
|  4> end
|  5> * xyz 0 1
|  6> C 1.7734386527 -0.8196099211 0.3684504421
|  7> C 1.2154826178 0.5775339148 0.1098712887
|  8> C 0.0367804344 0.5930788008 -0.8730956361
|  9> C -1.3444280426 0.5096850941 -0.2011659137
| 10> N -1.6434605761 -0.7124415815 0.5265899067
| 11> H 2.6091592744 -0.7675471251 1.0628747292
| 12> H 1.0219637535 -1.4804686824 0.7930442614
| 13> H 2.1289557409 -1.2614872502 -0.5602939638
| 14> H 0.9036831642 1.0299904148 1.0544444376
| 15> H 2.0214267088 1.1943401887 -0.2935059979
| 16> H 0.0575752952 1.5222002955 -1.4456595517
| 17> H 0.1427524305 -0.2317668843 -1.5821313618
| 18> H -2.1127253625 0.6198170022 -0.973090099
| 19> H -1.4542943605 1.3420124001 0.4998034668
| 20> H -1.0072423348 -0.8099778829 1.3102030544
| 21> H -1.5077209297 -1.5130671652 -0.081934317
| 22> *
| 23>
| 24>                          ****END OF INPUT****

CARTESIAN COORDINATES (ANGSTROEM)
---------------------------------
  C      1.773439   -0.819610    0.368450
  C      1.215483    0.577534    0.109871
  C      0.036780    0.593079   -0.873096
  C     -1.344428    0.509685   -0.201166
  N     -1.643461   -0.712442    0.526590
  H      2.609159   -0.767547    1.062875
  H      1.021964   -1.480469    0.793044
  H      2.128956   -1.261487   -0.560294
  H      0.903683    1.029990    1.054444
  H      2.021427    1.194340   -0.293506
  H      0.057575    1.522200   -1.445660
  H      0.142752   -0.231767   -1.582131
  H     -2.112725    0.619817   -0.973090
  H     -1.454294    1.342012    0.499803
  H     -1.007242   -0.809978    1.310203
  H     -1.507721   -1.513067   -0.081934

 Total Charge           Charge          ....    0
 Multiplicity           Mult            ....    1
 Number of Electrons    NEL             ....   42
 Basis Dimension        Dim             ....  155

ORBITAL ENERGIES
----------------

  NO   OCC          E(Eh)            E(eV)
   0   2.0000     -14.133774      -384.5995
   1   2.0000     -10.047415      -273.4041
   2   2.0000     -10.027427      -272.8602
   3   2.0000     -10.021737      -272.7053
   4   2.0000     -10.019047      -272.6321
   5   2.0000      -0.846816       -23.0430
   6   2.0000      -0.750393       -20.4192
   7   2.0000      -0.675145       -18.3716
   8   2.0000      -0.592717       -16.1286
   9   2.0000      -0.541586       -14.7373
  10   2.0000      -0.464762       -12.6468
  11   2.0000      -0.425196       -11.5702
  12   2.0000      -0.421707       -11.4752
  13   2.0000      -0.380568       -10.3558
  14   2.0000      -0.368335       -10.0229
  15   2.0000      -0.360920        -9.8211
  16   2.0000      -0.328988        -8.9522
  17   2.0000      -0.306332        -8.3357
  18   2.0000      -0.301623        -8.2076
  19   2.0000      -0.291814        -7.9407
  20   2.0000      -0.201428        -5.4811
  21   0.0000       0.067338         1.8324
  22   0.0000       0.102116         2.7787
  23   0.0000       0.112459         3.0602
  24   0.0000       0.118163         3.2154
  25   0.0000       0.130611         3.5541

MULLIKEN ATOMIC CHARGES
-----------------------
   0 C :   -0.513275
   1 C :   -0.218104
   2 C :   -0.173203
   3 C :   -0.323890
   4 N :   -0.549680
   5 H :    0.146461
   6 H :    0.139620
   7 H :    0.147734
   8 H :    0.138056
   9 H :    0.140725
  10 H :    0.141117
  11 H :    0.131621
  12 H :    0.148304
  13 H :    0.156580
  14 H :    0.246853
  15 H :    0.241080
Sum of atomic charges:   -0.0000000

LOEWDIN ATOMIC CHARGES
----------------------
   0 C :   -0.429789
   1 C :   -0.321364
   2 C :   -0.306840
   3 C :   -0.085440
   4 N :   -0.729657
   5 H :    0.150094
   6 H :    0.145340
   7 H :    0.150054
   8 H :    0.151930
   9 H :    0.153476
  10 H :    0.156663
  11 H :    0.154221
  12 H :    0.171911
  13 H :    0.171609
  14 H :    0.234015
  15 H :    0.233778

  Mayer bond orders larger than 0.100000
B(  0-C ,  1-C ) :   0.9092 B(  0-C ,  5-H ) :   0.9729 B(  0-C ,  6-H ) :   0.9833
B(  0-C ,  7-H ) :   0.9843 B(  1-C ,  2-C ) :   0.8417 B(  1-C ,  8-H ) :   0.9768
B(  1-C ,  9-H ) :   0.9626 B(  2-C ,  3-C ) :   0.8683 B(  2-C , 10-H ) :   0.9626
B(  2-C , 11-H ) :   0.9742 B(  3-C ,  4-N ) :   0.9680 B(  3-C , 12-H ) :   0.9914
B(  3-C , 13-H ) :   1.0119 B(  4-N , 14-H ) :   0.9162 B(  4-N , 15-H ) :   0.9147

Dispersion correction           -0.003606467
FINAL SINGLE POINT ENERGY      -213.719869008405

DIPOLE MOMENT
-------------

Method             : SCF
Type of density    : Electron Density
Multiplicity       :   1
Irrep              :   0
Energy             :  -213.7269675476563009 Eh
Relativity type    :
Basis              : AO
                                X                 Y                 Z
Electronic contribution:     -2.110700246       0.341992437       0.020001831
Nuclear contribution   :      2.621188958      -0.337836264      -0.199995781
                        -----------------------------------------
Total Dipole Moment    :      0.510488712       0.004156173      -0.179993951
                        -----------------------------------------
Magnitude (a.u.)       :      0.541307510
Magnitude (Debye)      :      1.375894348

Rotational constants in cm-1:             0.251813             0.108035             0.085869
Rotational constants in MHz :          7549.169546          3238.812345          2574.294563

                             ****ORCA TERMINATED NORMALLY****
TOTAL RUN TIME: 0 days 0 hours 0 minutes 17 seconds 711 msec
