                         Program Version 6.0.0  -   RELEASE  -
|  1> ! r2scan-3c def2/J RI DEFGRID2 scfconv6 printgap
|  2> %output
|  3>     printlevel normal
|  4> end
|  5> %cpcm
|  6>     smd true
|  7>     smdsolvent "water"
|  8> end
|  9> * xyz 0 1
| 10> C 1.7734386527 -0.8196099211 0.3684504421
| 11> C 1.2154826178 0.5775339148 0.1098712887
| 12> C 0.0367804344 0.5930788008 -0.8730956361
| 13> C -1.3444280426 0.5096850941 -0.2011659137
| 14> N -1.6434605761 -0.7124415815 0.5265899067
| 15> H 2.6091592744 -0.7675471251 1.0628747292
| 16> H 1.0219637535 -1.4804686824 0.7930442614
| 17> H 2.1289557409 -1.2614872502 -0.5602939638
| 18> H 0.9036831642 1.0299904148 1.0544444376
| 19> H 2.0214267088 1.1943401887 -0.2935059979
| 20> H 0.0575752952 1.5222002955 -1.4456595517
| 21> H 0.1427524305 -0.2317668843 -1.5821313618
| 22> H -2.1127253625 0.6198170022 -0.973090099
| 23> H -1.4542943605 1.3420124001 0.4998034668
| 24> H -1.0072423348 -0.8099778829 1.3102030544
| 25> H -1.5077209297 -1.5130671652 -0.081934317
| 26> *
| 27>
| 28>                          ****END OF INPUT****

CARTESIAN COORDINATES (ANGSTROEM)
---------------------------------
  C      1.773439   -0.819610    0.368450
  C      1.215483    0.577534    0.109871
  C      0.036780    0.593079   -0.873096
  C     -1.344428    0.509685   -0.201166
  N     -1.643461   -0.712442    0.526590
  H      2.609159   -0.767547    1.062875
  H      1.021964   -1.480469    0.793044
  H      2.128956   -1.261487   -0.560294
  H      0.903683    1.029990    1.054444
  H      2.021427    1.194340   -0.293506
  H      0.057575    1.522200   -1.445660
  H      0.142752   -0.231767   -1.582131
  H     -2.112725    0.619817   -0.973090
  H     -1.454294    1.342012    0.499803
  H     -1.007242   -0.809978    1.310203
  H     -1.507721   -1.513067   -0.081934

 Total Charge           Charge          ....    0
 Multiplicity           Mult            ....    1
 Number of Electrons    NEL             ....   42
 Basis Dimension        Dim             ....  155

ORBITAL ENERGIES
----------------

  NO   OCC          E(Eh)            E(eV)
   0   2.0000     -14.126607      -384.4045
   1   2.0000     -10.039973      -273.2015
   2   2.0000     -10.015735      -272.5420
   3   2.0000     -10.011607      -272.4297
   4   2.0000     -10.006488      -272.2904
   5   2.0000      -0.839711       -22.8497
   6   2.0000      -0.739470       -20.1220
   7   2.0000      -0.665090       -18.0980
   8   2.0000      -0.583338       -15.8734
   9   2.0000      -0.531353       -14.4588
  10   2.0000      -0.455905       -12.4058
  11   2.0000      -0.414433       -11.2773
  12   2.0000      -0.411897       -11.2083
  13   2.0000      -0.370030       -10.0690
  14   2.0000      -0.359299        -9.7770
  15   2.0000      -0.351255        -9.5581
  16   2.0000      -0.319094        -8.6830
  17   2.0000      -0.295126        -8.0308
  18   2.0000      -0.290587        -7.9073
  19   2.0000      -0.281742        -7.6666
  20   2.0000      -0.200763        -5.4630
  21   0.0000       0.080642         2.1944
  22   0.0000       0.114881         3.1261
  23   0.0000       0.123879         3.3709
  24   0.0000       0.129732         3.5302
  25   0.0000       0.139920         3.8074

MULLIKEN ATOMIC CHARGES
-----------------------
   0 C :   -0.547322
   1 C :   -0.227526
   2 C :   -0.208618
   3 C :   -0.309298
   4 N :   -0.646356
   5 H :    0.153242
   6 H :    0.156080
   7 H :    0.156501
   8 H :    0.147243
   9 H :    0.147535
  10 H :    0.149814
  11 H :    0.144462
  12 H :    0.150272
  13 H :    0.161389
  14 H :    0.290014
  15 H :    0.282567
Sum of atomic charges:   -0.0000000

LOEWDIN ATOMIC CHARGES
----------------------
   0 C :   -0.436834
   1 C :   -0.322843
   2 C :   -0.307308
   3 C :   -0.090756
   4 N :   -0.754850
   5 H :    0.151175
   6 H :    0.150486
   7 H :    0.151629
   8 H :    0.155327
   9 H :    0.154444
  10 H :    0.159090
  11 H :    0.158070
  12 H :    0.172299
  13 H :    0.173516
  14 H :    0.243469
  15 H :    0.243085

  Mayer bond orders larger than 0.100000
B(  0-C ,  1-C ) :   0.9011 B(  0-C ,  5-H ) :   0.9713 B(  0-C ,  6-H ) :   0.9797
B(  0-C ,  7-H ) :   0.9815 B(  1-C ,  2-C ) :   0.8436 B(  1-C ,  8-H ) :   0.9755
B(  1-C ,  9-H ) :   0.9651 B(  2-C ,  3-C ) :   0.8903 B(  2-C , 10-H ) :   0.9629
B(  2-C , 11-H ) :   0.9753 B(  3-C ,  4-N ) :   0.9732 B(  3-C , 12-H ) :   0.9827
B(  3-C , 13-H ) :   1.0015 B(  4-N , 14-H ) :   0.8997 B(  4-N , 15-H ) :   0.8993

Dispersion correction           -0.003606467
FINAL SINGLE POINT ENERGY      -213.725829812813

DIPOLE MOMENT
-------------

Method             : SCF
Type of density    : Electron Density
Multiplicity       :   1
Irrep              :   0
Energy             :  -213.7329283520648460 Eh
Relativity type    :
Basis              : AO
                                X                 Y                 Z
Electronic contribution:     -1.945231060       0.316467428      -0.021408854
Nuclear contribution   :      2.621188958      -0.337836264      -0.199995781
                        -----------------------------------------
Total Dipole Moment    :      0.675957897      -0.021368836      -0.221404635
                        -----------------------------------------
Magnitude (a.u.)       :      0.711614867
Magnitude (Debye)      :      1.808781245

Rotational constants in cm-1:             0.251813             0.108035             0.085869
Rotational constants in MHz :          7549.169546          3238.812345          2574.294563

                             ****ORCA TERMINATED NORMALLY****
TOTAL RUN TIME: 0 days 0 hours 0 minutes 22 seconds 55 msec
