                         Program Version 6.0.0  -   RELEASE  -
|  1> ! r2scan-3c def2/J RI DEFGRID2 scfconv6 printgap
|  2> %output
|  3>     printlevel normal
|  4> end
|  5> * xyz 0 1
|  6> C -3.4295532005 0.6351266858 0.3265700233
|  7> C -2.7390884331 -0.7043971193 0.0972601264
|  8> C -1.3299546451 -0.5665908675 -0.4783248787
|  9> C -0.3456694716 0.0673789588 0.5097298976
| 10> C 1.0143863251 0.2174605388 -0.1154705546
| 11> O 1.2343919331 0.7042204039 -1.2048512341
| 12> O 1.9749302652 -0.2519239319 0.6747632166
| 13> C 3.3230759655 -0.1630167682 0.2048550279
| 14> H -4.459345309 0.4766986218 0.6367494939
| 15> H -2.9293024964 1.2086315856 1.1022122909
| 16> H -3.4330116218 1.221562964 -0.5894516249
| 17> H -2.6916503785 -1.2567838502 1.0375330949
| 18> H -3.3348353443 -1.2922836207 -0.603505386
| 19> H -1.3552650184 0.0419365489 -1.3844875637
| 20> H -0.9601146787 -1.5563325124 -0.7548748346
| 21> H -0.2521969087 -0.5311264373 1.4150872389
| 22> H -0.6916499378 1.0676734073 0.7752741131
| 23> H 3.559907359 0.8690822508 -0.0558769073
| 24> H 3.4499908309 -0.7900374878 -0.6782978443
| 25> H 3.9427823399 -0.5130495376 1.0240984004
| 26> *
| 27>
| 28>                          ****END OF INPUT****

CARTESIAN COORDINATES (ANGSTROEM)
---------------------------------
  C     -3.429553    0.635127    0.326570
  C     -2.739088   -0.704397    0.097260
  C     -1.329955   -0.566591   -0.478325
  C     -0.345669    0.067379    0.509730
  C      1.014386    0.217461   -0.115471
  O      1.234392    0.704220   -1.204851
  O      1.974930   -0.251924    0.674763
  C      3.323076   -0.163017    0.204855
  H     -4.459345    0.476699    0.636749
  H     -2.929302    1.208632    1.102212
  H     -3.433012    1.221563   -0.589452
  H     -2.691650   -1.256784    1.037533
  H     -3.334835   -1.292284   -0.603505
  H     -1.355265    0.041937   -1.384488
  H     -0.960115   -1.556333   -0.754875
  H     -0.252197   -0.531126    1.415087
  H     -0.691650    1.067673    0.775274
  H      3.559907    0.869082   -0.055877
  H      3.449991   -0.790037   -0.678298
  H      3.942782   -0.513050    1.024098

 Total Charge           Charge          ....    0
 Multiplicity           Mult            ....    1
 Number of Electrons    NEL             ....   64
 Basis Dimension        Dim             ....  222

ORBITAL ENERGIES
----------------

  NO   OCC          E(Eh)            E(eV)
   0   2.0000     -18.999539      -517.0038
   1   2.0000     -18.928177      -515.0619
   2   2.0000     -10.151685      -276.2414
   3   2.0000     -10.086489      -274.4673
   4   2.0000     -10.041561      -273.2448
   5   2.0000     -10.032005      -272.9847
   6   2.0000     -10.029432      -272.9147
   7   2.0000     -10.019215      -272.6367
   8   2.0000      -1.072817       -29.1928
   9   2.0000      -0.975460       -26.5436
  10   2.0000      -0.778081       -21.1727
  11   2.0000      -0.727617       -19.7995
  12   2.0000      -0.684855       -18.6359
  13   2.0000      -0.623762       -16.9734
  14   2.0000      -0.550563       -14.9816
  15   2.0000      -0.527963       -14.3666
  16   2.0000      -0.471954       -12.8425
  17   2.0000      -0.459115       -12.4931
  18   2.0000      -0.443315       -12.0632
  19   2.0000      -0.429956       -11.6997
  20   2.0000      -0.414201       -11.2710
  21   2.0000      -0.393139       -10.6979
  22   2.0000      -0.380471       -10.3532
  23   2.0000      -0.368322       -10.0225
  24   2.0000      -0.343905        -9.3581
  25   2.0000      -0.337853        -9.1935
  26   2.0000      -0.324386        -8.8270
  27   2.0000      -0.302815        -8.2400
  28   2.0000      -0.301079        -8.1928
  29   2.0000      -0.296887        -8.0787
  30   2.0000      -0.274040        -7.4570
  31   2.0000      -0.236282        -6.4296
  32   0.0000      -0.014892        -0.4052
  33   0.0000       0.065912         1.7935
  34   0.0000       0.093757         2.5512
  35   0.0000       0.099303         2.7022
  36   0.0000       0.117380         3.1941

MULLIKEN ATOMIC CHARGES
-----------------------
   0 C :   -0.495068
   1 C :   -0.203230
   2 C :   -0.269471
   3 C :   -0.337762
   4 C :    0.374833
   5 O :   -0.423850
   6 O :   -0.187978
   7 C :   -0.296472
   8 H :    0.148828
   9 H :    0.143796
  10 H :    0.151121
  11 H :    0.131838
  12 H :    0.146209
  13 H :    0.168825
  14 H :    0.140126
  15 H :    0.166319
  16 H :    0.168330
  17 H :    0.163973
  18 H :    0.159320
  19 H :    0.150312
Sum of atomic charges:    0.0000000

LOEWDIN ATOMIC CHARGES
----------------------
   0 C :   -0.425607
   1 C :   -0.315191
   2 C :   -0.285680
   3 C :   -0.228796
   4 C :    0.355660
   5 O :   -0.427991
   6 O :   -0.604554
   7 C :   -0.045147
   8 H :    0.152236
   9 H :    0.147562
  10 H :    0.152593
  11 H :    0.151881
  12 H :    0.154647
  13 H :    0.169183
  14 H :    0.159707
  15 H :    0.177977
  16 H :    0.181701
  17 H :    0.178148
  18 H :    0.175710
  19 H :    0.175961

  Mayer bond orders larger than 0.100000
B(  0-C ,  1-C ) :   0.8902 B(  0-C ,  8-H ) :   0.9697 B(  0-C ,  9-H ) :   0.9820
B(  0-C , 10-H ) :   0.9820 B(  1-C ,  2-C ) :   0.8839 B(  1-C , 11-H ) :   0.9775
B(  1-C , 12-H ) :   0.9715 B(  2-C ,  3-C ) :   0.8984 B(  2-C , 13-H ) :   0.9780
B(  2-C , 14-H ) :   0.9635 B(  3-C ,  4-C ) :   0.9866 B(  3-C , 15-H ) :   0.9825
B(  3-C , 16-H ) :   0.9431 B(  4-C ,  5-O ) :   1.8075 B(  4-C ,  6-O ) :   1.0643
B(  6-O ,  7-C ) :   0.8512 B(  7-C , 17-H ) :   0.9632 B(  7-C , 18-H ) :   0.9620
B(  7-C , 19-H ) :   0.9693

Dispersion correction           -0.005002956
FINAL SINGLE POINT ENERGY      -386.230218843248

DIPOLE MOMENT
-------------

Method             : SCF
Type of density    : Electron Density
Multiplicity       :   1
Irrep              :   0
Energy             :  -386.2372202915784669 Eh
Relativity type    :
Basis              : AO
                                X                 Y                 Z
Electronic contribution:      8.585553650       0.618663904      -1.173744667
Nuclear contribution   :     -8.541038023      -0.982147305       1.797604494
                        -----------------------------------------
Total Dipole Moment    :      0.044515627      -0.363483401       0.623859827
                        -----------------------------------------
Magnitude (a.u.)       :      0.723396784
Magnitude (Debye)      :      1.838728500

Rotational constants in cm-1:             0.198523             0.027204             0.026218
Rotational constants in MHz :          5951.566722           815.548811           785.992668

                             ****ORCA TERMINATED NORMALLY****
TOTAL RUN TIME: 0 days 0 hours 0 minutes 28 seconds 191 msec
