                         Program Version 6.0.0  -   RELEASE  -
|  1> ! r2scan-3c def2/J RI DEFGRID2 scfconv6 printgap
|  2> %output
|  3>     printlevel normal
|  4> end
|  5> %cpcm
|  6>     smd true
|  7>     smdsolvent "water"
|  8> end
|  9> * xyz 0 1
| 10> C -3.4295532005 0.6351266858 0.3265700233
| 11> C -2.7390884331 -0.7043971193 0.0972601264
| 12> C -1.3299546451 -0.5665908675 -0.4783248787
| 13> C -0.3456694716 0.0673789588 0.5097298976
| 14> C 1.0143863251 0.2174605388 -0.1154705546
| 15> O 1.2343919331 0.7042204039 -1.2048512341
| 16> O 1.9749302652 -0.2519239319 0.6747632166
| 17> C 3.3230759655 -0.1630167682 0.2048550279
| 18> H -4.459345309 0.4766986218 0.6367494939
| 19> H -2.9293024964 1.2086315856 1.1022122909
| 20> H -3.4330116218 1.221562964 -0.5894516249
| 21> H -2.6916503785 -1.2567838502 1.0375330949
| 22> H -3.3348353443 -1.2922836207 -0.603505386
| 23> H -1.3552650184 0.0419365489 -1.3844875637
| 24> H -0.9601146787 -1.5563325124 -0.7548748346
| 25> H -0.2521969087 -0.5311264373 1.4150872389
| 26> H -0.6916499378 1.0676734073 0.7752741131
| 27> H 3.559907359 0.8690822508 -0.0558769073
| 28> H 3.4499908309 -0.7900374878 -0.6782978443
| 29> H 3.9427823399 -0.5130495376 1.0240984004
| 30> *
| 31>
| 32>                          ****END OF INPUT****

CARTESIAN COORDINATES (ANGSTROEM)
---------------------------------
  C     -3.429553    0.635127    0.326570
  C     -2.739088   -0.704397    0.097260
  C     -1.329955   -0.566591   -0.478325
  C     -0.345669    0.067379    0.509730
  C      1.014386    0.217461   -0.115471
  O      1.234392    0.704220   -1.204851
  O      1.974930   -0.251924    0.674763
  C      3.323076   -0.163017    0.204855
  H     -4.459345    0.476699    0.636749
  H     -2.929302    1.208632    1.102212
  H     -3.433012    1.221563   -0.589452
  H     -2.691650   -1.256784    1.037533
  H     -3.334835   -1.292284   -0.603505
  H     -1.355265    0.041937   -1.384488
  H     -0.960115   -1.556333   -0.754875
  H     -0.252197   -0.531126    1.415087
  H     -0.691650    1.067673    0.775274
  H      3.559907    0.869082   -0.055877
  H      3.449991   -0.790037   -0.678298
  H      3.942782   -0.513050    1.024098

 Total Charge           Charge          ....    0
 Multiplicity           Mult            ....    1
 Number of Electrons    NEL             ....   64
 Basis Dimension        Dim             ....  222

ORBITAL ENERGIES
----------------

  NO   OCC          E(Eh)            E(eV)
   0   2.0000     -19.004836      -517.1479
   1   2.0000     -18.944105      -515.4953
   2   2.0000     -10.162152      -276.5262
   3   2.0000     -10.076279      -274.1895
   4   2.0000     -10.035133      -273.0698
   5   2.0000     -10.025338      -272.8033
   6   2.0000     -10.019361      -272.6407
   7   2.0000     -10.008266      -272.3388
   8   2.0000      -1.079832       -29.3837
   9   2.0000      -0.989071       -26.9140
  10   2.0000      -0.771502       -20.9936
  11   2.0000      -0.722158       -19.6509
  12   2.0000      -0.677971       -18.4485
  13   2.0000      -0.615881       -16.7590
  14   2.0000      -0.544038       -14.8040
  15   2.0000      -0.524896       -14.2831
  16   2.0000      -0.472052       -12.8452
  17   2.0000      -0.460362       -12.5271
  18   2.0000      -0.451637       -12.2897
  19   2.0000      -0.424334       -11.5467
  20   2.0000      -0.405745       -11.0409
  21   2.0000      -0.391696       -10.6586
  22   2.0000      -0.375999       -10.2314
  23   2.0000      -0.361398        -9.8341
  24   2.0000      -0.340981        -9.2786
  25   2.0000      -0.330784        -9.0011
  26   2.0000      -0.324837        -8.8393
  27   2.0000      -0.295866        -8.0509
  28   2.0000      -0.292814        -7.9679
  29   2.0000      -0.288673        -7.8552
  30   2.0000      -0.281592        -7.6625
  31   2.0000      -0.252705        -6.8765
  32   0.0000      -0.022617        -0.6154
  33   0.0000       0.070922         1.9299
  34   0.0000       0.102913         2.8004
  35   0.0000       0.108033         2.9397
  36   0.0000       0.127362         3.4657

MULLIKEN ATOMIC CHARGES
-----------------------
   0 C :   -0.532455
   1 C :   -0.222295
   2 C :   -0.274661
   3 C :   -0.358579
   4 C :    0.425107
   5 O :   -0.510461
   6 O :   -0.204222
   7 C :   -0.330593
   8 H :    0.158392
   9 H :    0.159436
  10 H :    0.158182
  11 H :    0.145191
  12 H :    0.155694
  13 H :    0.159702
  14 H :    0.157255
  15 H :    0.181058
  16 H :    0.198366
  17 H :    0.177513
  18 H :    0.178982
  19 H :    0.178387
Sum of atomic charges:    0.0000000

LOEWDIN ATOMIC CHARGES
----------------------
   0 C :   -0.433342
   1 C :   -0.314669
   2 C :   -0.287167
   3 C :   -0.225527
   4 C :    0.366216
   5 O :   -0.490293
   6 O :   -0.606372
   7 C :   -0.042715
   8 H :    0.154245
   9 H :    0.152325
  10 H :    0.153798
  11 H :    0.156260
  12 H :    0.157244
  13 H :    0.164976
  14 H :    0.164062
  15 H :    0.185596
  16 H :    0.192360
  17 H :    0.182669
  18 H :    0.182103
  19 H :    0.188230

  Mayer bond orders larger than 0.100000
B(  0-C ,  1-C ) :   0.8828 B(  0-C ,  8-H ) :   0.9676 B(  0-C ,  9-H ) :   0.9777
B(  0-C , 10-H ) :   0.9803 B(  1-C ,  2-C ) :   0.8855 B(  1-C , 11-H ) :   0.9783
B(  1-C , 12-H ) :   0.9715 B(  2-C ,  3-C ) :   0.8879 B(  2-C , 13-H ) :   0.9765
B(  2-C , 14-H ) :   0.9627 B(  3-C ,  4-C ) :   0.9855 B(  3-C , 15-H ) :   0.9749
B(  3-C , 16-H ) :   0.9340 B(  4-C ,  5-O ) :   1.7442 B(  4-C ,  6-O ) :   1.0893
B(  6-O ,  7-C ) :   0.8314 B(  7-C , 17-H ) :   0.9580 B(  7-C , 18-H ) :   0.9562
B(  7-C , 19-H ) :   0.9593

Dispersion correction           -0.005002956
FINAL SINGLE POINT ENERGY      -386.235236439965

DIPOLE MOMENT
-------------

Method             : SCF
Type of density    : Electron Density
Multiplicity       :   1
Irrep              :   0
Energy             :  -386.2422378882961311 Eh
Relativity type    :
Basis              : AO
                                X                 Y                 Z
Electronic contribution:      8.598308231       0.468835347      -0.845086059
Nuclear contribution   :     -8.541038023      -0.982147305       1.797604494
                        -----------------------------------------
Total Dipole Moment    :      0.057270208      -0.513311959       0.952518434
                        -----------------------------------------
Magnitude (a.u.)       :      1.083540683
Magnitude (Debye)      :      2.754141540

Rotational constants in cm-1:             0.198523             0.027204             0.026218
Rotational constants in MHz :          5951.566722           815.548811           785.992668

                             ****ORCA TERMINATED NORMALLY****
TOTAL RUN TIME: 0 days 0 hours 0 minutes 33 seconds 228 msec
