                         Program Version 6.0.0  -   RELEASE  -
|  1> ! pbe def2-sv(p) def2/J RI DEFGRID1 loosescf d4 GCP(DFT/SV(P)) printgap
|  2> %output
|  3>     printlevel normal
|  4> end
|  5> * xyz 0 1
|  6> C 1.0364451046 -1.6526513601 0.4085310934
|  7> O 0.5705933256 -0.8276359193 -0.6696823389
|  8> C -0.1670481701 0.2863386981 -0.2770520238
|  9> O 0.5408571722 1.1383318163 0.5510379913
| 10> C 1.6121678099 1.8192307958 -0.0977476551
| 11> O -1.3031755598 -0.0434353382 0.4394869613
| 12> C -2.3079585493 -0.6938759404 -0.3348126524
| 13> H 0.6240311471 -2.65210936 0.2748352281
| 14> H 0.7105073085 -1.2362351799 1.361156835
| 15> H 2.1245640879 -1.686085447 0.3660293365
| 16> H -0.4253732308 0.7799644586 -1.2384836083
| 17> H 2.308776894 1.1060648095 -0.5434747097
| 18> H 2.1002163765 2.3916576561 0.6849106459
| 19> H 1.2213452466 2.4835972321 -0.8729653423
| 20> H -2.680408837 -0.0198958158 -1.1107820046
| 21> H -3.0968127122 -0.9370259138 0.3701843597
| 22> H -1.9122436936 -1.6009656473 -0.79652292
| 23> *
| 24>
| 25>                          ****END OF INPUT****

CARTESIAN COORDINATES (ANGSTROEM)
---------------------------------
  C      1.036445   -1.652651    0.408531
  O      0.570593   -0.827636   -0.669682
  C     -0.167048    0.286339   -0.277052
  O      0.540857    1.138332    0.551038
  C      1.612168    1.819231   -0.097748
  O     -1.303176   -0.043435    0.439487
  C     -2.307959   -0.693876   -0.334813
  H      0.624031   -2.652109    0.274835
  H      0.710507   -1.236235    1.361157
  H      2.124564   -1.686085    0.366029
  H     -0.425373    0.779964   -1.238484
  H      2.308777    1.106065   -0.543475
  H      2.100216    2.391658    0.684911
  H      1.221345    2.483597   -0.872965
  H     -2.680409   -0.019896   -1.110782
  H     -3.096813   -0.937026    0.370184
  H     -1.912244   -1.600966   -0.796523

 Total Charge           Charge          ....    0
 Multiplicity           Mult            ....    1
 Number of Electrons    NEL             ....   58
 Basis Dimension        Dim             ....  118

ORBITAL ENERGIES
----------------

  NO   OCC          E(Eh)            E(eV)
   0   2.0000     -18.760156      -510.4898
   1   2.0000     -18.760056      -510.4871
   2   2.0000     -18.758072      -510.4331
   3   2.0000     -10.019651      -272.6486
   4   2.0000      -9.929683      -270.2004
   5   2.0000      -9.929661      -270.1998
   6   2.0000      -9.921201      -269.9696
   7   2.0000      -1.001147       -27.2426
   8   2.0000      -0.918545       -24.9949
   9   2.0000      -0.907763       -24.7015
  10   2.0000      -0.669040       -18.2055
  11   2.0000      -0.629352       -17.1255
  12   2.0000      -0.604953       -16.4616
  13   2.0000      -0.526617       -14.3300
  14   2.0000      -0.473859       -12.8944
  15   2.0000      -0.462185       -12.5767
  16   2.0000      -0.462179       -12.5765
  17   2.0000      -0.405224       -11.0267
  18   2.0000      -0.393685       -10.7127
  19   2.0000      -0.381984       -10.3943
  20   2.0000      -0.377937       -10.2842
  21   2.0000      -0.366232        -9.9657
  22   2.0000      -0.351838        -9.5740
  23   2.0000      -0.311601        -8.4791
  24   2.0000      -0.299170        -8.1408
  25   2.0000      -0.253618        -6.9013
  26   2.0000      -0.236398        -6.4327
  27   2.0000      -0.228413        -6.2154
  28   2.0000      -0.212352        -5.7784
  29   0.0000       0.038497         1.0476
  30   0.0000       0.060174         1.6374
  31   0.0000       0.068607         1.8669
  32   0.0000       0.079330         2.1587
  33   0.0000       0.095173         2.5898

MULLIKEN ATOMIC CHARGES
-----------------------
   0 C :   -0.127120
   1 O :   -0.333565
   2 C :    0.263520
   3 O :   -0.295646
   4 C :   -0.106817
   5 O :   -0.295592
   6 C :   -0.107100
   7 H :    0.106664
   8 H :    0.123007
   9 H :    0.106637
  10 H :    0.029545
  11 H :    0.102856
  12 H :    0.121364
  13 H :    0.093930
  14 H :    0.093911
  15 H :    0.121410
  16 H :    0.102996
Sum of atomic charges:   -0.0000000

LOEWDIN ATOMIC CHARGES
----------------------
   0 C :   -0.213489
   1 O :   -0.177031
   2 C :    0.043182
   3 O :   -0.153428
   4 C :   -0.203973
   5 O :   -0.153468
   6 C :   -0.204053
   7 H :    0.108334
   8 H :    0.116454
   9 H :    0.108298
  10 H :    0.073346
  11 H :    0.104632
  12 H :    0.119650
  13 H :    0.103618
  14 H :    0.103595
  15 H :    0.119679
  16 H :    0.104655

  Mayer bond orders larger than 0.100000
B(  0-C ,  1-O ) :   0.9594 B(  0-C ,  7-H ) :   0.9606 B(  0-C ,  8-H ) :   0.9373
B(  0-C ,  9-H ) :   0.9605 B(  1-O ,  2-C ) :   1.0991 B(  2-C ,  3-O ) :   1.0784
B(  2-C ,  5-O ) :   1.0786 B(  2-C , 10-H ) :   0.8881 B(  3-O ,  4-C ) :   0.9897
B(  4-C , 11-H ) :   0.9418 B(  4-C , 12-H ) :   0.9647 B(  4-C , 13-H ) :   0.9463
B(  5-O ,  6-C ) :   0.9897 B(  6-C , 14-H ) :   0.9463 B(  6-C , 15-H ) :   0.9647
B(  6-C , 16-H ) :   0.9418

Dispersion correction           -0.012087448
FINAL SINGLE POINT ENERGY      -383.232048248913

DIPOLE MOMENT
-------------

Method             : SCF
Type of density    : Electron Density
Multiplicity       :   1
Irrep              :   0
Energy             :  -383.3121421966131948 Eh
Relativity type    :
Basis              : AO
                                X                 Y                 Z
Electronic contribution:     -0.817648482       1.168287016       1.077377933
Nuclear contribution   :      0.911498215      -1.282296751      -1.407290945
                        -----------------------------------------
Total Dipole Moment    :      0.093849733      -0.114009735      -0.329913012
                        -----------------------------------------
Magnitude (a.u.)       :      0.361453438
Magnitude (Debye)      :      0.918741625

Rotational constants in cm-1:             0.123834             0.070343             0.052129
Rotational constants in MHz :          3712.461369          2108.832396          1562.791743

                             ****ORCA TERMINATED NORMALLY****
TOTAL RUN TIME: 0 days 0 hours 0 minutes 9 seconds 625 msec
