                         Program Version 6.0.0  -   RELEASE  -
|  1> ! pbe def2-sv(p) def2/J RI DEFGRID1 loosescf d4 GCP(DFT/SV(P)) printgap
|  2> %output
|  3>     printlevel normal
|  4> end
|  5> * xyz 0 1
|  6> C 1.9520537422 -1.066295494 -0.473539568
|  7> C 1.7909798496 0.0511767828 0.5518185272
|  8> C 1.2221768038 1.3468994371 -0.0432230319
|  9> C -0.2870748263 1.5409970936 0.1266432472
| 10> C -1.1650058607 0.5775581716 -0.6575529847
| 11> Cl -1.4498931422 -0.968022939 0.2238515951
| 12> H 2.4036307959 -1.9398635061 -0.008028083
| 13> H 2.5954369388 -0.7436778245 -1.2895670913
| 14> H 0.9930225771 -1.3655231047 -0.8855719171
| 15> H 1.1489092484 -0.2922047053 1.3645716878
| 16> H 2.7733420437 0.2601285273 0.9809301143
| 17> H 1.4718857823 1.3952878963 -1.1046377503
| 18> H 1.7049340001 2.1963630669 0.4435292228
| 19> H -0.5339342432 2.5459639072 -0.2230049383
| 20> H -0.547274529 1.4876867026 1.185068915
| 21> H -2.1576436609 0.9954415712 -0.8152841199
| 22> H -0.7176124149 0.3104140048 -1.6129931299
| 23> *
| 24>
| 25>                          ****END OF INPUT****

CARTESIAN COORDINATES (ANGSTROEM)
---------------------------------
  C      1.952054   -1.066295   -0.473540
  C      1.790980    0.051177    0.551819
  C      1.222177    1.346899   -0.043223
  C     -0.287075    1.540997    0.126643
  C     -1.165006    0.577558   -0.657553
  Cl    -1.449893   -0.968023    0.223852
  H      2.403631   -1.939864   -0.008028
  H      2.595437   -0.743678   -1.289567
  H      0.993023   -1.365523   -0.885572
  H      1.148909   -0.292205    1.364572
  H      2.773342    0.260129    0.980930
  H      1.471886    1.395288   -1.104638
  H      1.704934    2.196363    0.443529
  H     -0.533934    2.545964   -0.223005
  H     -0.547275    1.487687    1.185069
  H     -2.157644    0.995442   -0.815284
  H     -0.717612    0.310414   -1.612993

 Total Charge           Charge          ....    0
 Multiplicity           Mult            ....    1
 Number of Electrons    NEL             ....   58
 Basis Dimension        Dim             ....  110

ORBITAL ENERGIES
----------------

  NO   OCC          E(Eh)            E(eV)
   0   2.0000    -100.619487     -2737.9954
   1   2.0000      -9.940275      -270.4886
   2   2.0000      -9.896233      -269.2902
   3   2.0000      -9.885921      -269.0096
   4   2.0000      -9.878054      -268.7955
   5   2.0000      -9.865765      -268.4611
   6   2.0000      -9.154916      -249.1179
   7   2.0000      -6.986419      -190.1101
   8   2.0000      -6.974623      -189.7891
   9   2.0000      -6.974571      -189.7877
  10   2.0000      -0.776900       -21.1405
  11   2.0000      -0.715043       -19.4573
  12   2.0000      -0.665285       -18.1033
  13   2.0000      -0.600277       -16.3344
  14   2.0000      -0.540877       -14.7180
  15   2.0000      -0.508079       -13.8255
  16   2.0000      -0.433078       -11.7847
  17   2.0000      -0.411814       -11.2060
  18   2.0000      -0.399752       -10.8778
  19   2.0000      -0.379704       -10.3323
  20   2.0000      -0.359919        -9.7939
  21   2.0000      -0.345944        -9.4136
  22   2.0000      -0.333185        -9.0664
  23   2.0000      -0.314758        -8.5650
  24   2.0000      -0.288873        -7.8606
  25   2.0000      -0.284981        -7.7547
  26   2.0000      -0.276009        -7.5106
  27   2.0000      -0.245223        -6.6729
  28   2.0000      -0.241902        -6.5825
  29   0.0000       0.007816         0.2127
  30   0.0000       0.034241         0.9317
  31   0.0000       0.059287         1.6133
  32   0.0000       0.065898         1.7932
  33   0.0000       0.081128         2.2076

MULLIKEN ATOMIC CHARGES
-----------------------
   0 C :   -0.294765
   1 C :   -0.176448
   2 C :   -0.166251
   3 C :   -0.160263
   4 C :   -0.170753
   5 Cl:   -0.143384
   6 H :    0.100144
   7 H :    0.094695
   8 H :    0.104753
   9 H :    0.092617
  10 H :    0.081643
  11 H :    0.082023
  12 H :    0.085344
  13 H :    0.093022
  14 H :    0.105278
  15 H :    0.136736
  16 H :    0.135608
Sum of atomic charges:   -0.0000000

LOEWDIN ATOMIC CHARGES
----------------------
   0 C :   -0.347582
   1 C :   -0.241238
   2 C :   -0.227379
   3 C :   -0.246759
   4 C :   -0.270360
   5 Cl:    0.034967
   6 H :    0.119020
   7 H :    0.112465
   8 H :    0.109212
   9 H :    0.113255
  10 H :    0.115132
  11 H :    0.113077
  12 H :    0.119389
  13 H :    0.125513
  14 H :    0.123036
  15 H :    0.125276
  16 H :    0.122975

  Mayer bond orders larger than 0.100000
B(  0-C ,  1-C ) :   1.1612 B(  0-C ,  6-H ) :   0.9521 B(  0-C ,  7-H ) :   0.9525
B(  0-C ,  8-H ) :   0.9399 B(  1-C ,  2-C ) :   1.0958 B(  1-C ,  9-H ) :   0.9251
B(  1-C , 10-H ) :   0.9287 B(  2-C ,  3-C ) :   1.1454 B(  2-C , 11-H ) :   0.9266
B(  2-C , 12-H ) :   0.9227 B(  3-C ,  4-C ) :   1.0930 B(  3-C , 13-H ) :   0.9076
B(  3-C , 14-H ) :   0.9166 B(  4-C ,  5-Cl) :   1.0283 B(  4-C , 15-H ) :   0.9333
B(  4-C , 16-H ) :   0.9249

Dispersion correction           -0.014155705
FINAL SINGLE POINT ENERGY      -656.507403727347

DIPOLE MOMENT
-------------

Method             : SCF
Type of density    : Electron Density
Multiplicity       :   1
Irrep              :   0
Energy             :  -656.5648291707243516 Eh
Relativity type    :
Basis              : AO
                                X                 Y                 Z
Electronic contribution:    -10.423416486      -5.210146618       1.891085194
Nuclear contribution   :     10.515937301       5.849417883      -2.143943275
                        -----------------------------------------
Total Dipole Moment    :      0.092520815       0.639271264      -0.252858080
                        -----------------------------------------
Magnitude (a.u.)       :      0.693660623
Magnitude (Debye)      :      1.763145183

Rotational constants in cm-1:             0.117717             0.065151             0.047885
Rotational constants in MHz :          3529.073076          1953.179899          1435.567245

                             ****ORCA TERMINATED NORMALLY****
TOTAL RUN TIME: 0 days 0 hours 0 minutes 6 seconds 825 msec
