                         Program Version 6.0.0  -   RELEASE  -
|  1> ! r2scan-3c def2/J RI DEFGRID2 scfconv6 printgap
|  2> %output
|  3>     printlevel normal
|  4> end
|  5> * xyz 0 1
|  6> C -3.4431460672 -0.9593397672 0.3001524757
|  7> C -2.1011503093 -0.6063806067 -0.3281208732
|  8> C -1.2910915851 0.3275677454 0.5836703211
|  9> C 0.0143290514 0.6616059007 -0.0859677063
| 10> O 0.192536208 1.6090616895 -0.8251853395
| 11> O 0.9499106125 -0.2306131113 0.2012434225
| 12> C 2.2542153767 -0.0834115177 -0.3864655974
| 13> C 3.278640836 -0.6880168473 0.5558677693
| 14> H -4.0011193591 -1.6205915956 -0.357028685
| 15> H -3.2965572939 -1.4609807172 1.2530116091
| 16> H -4.0327780331 -0.0620018294 0.4686810931
| 17> H -2.2592019662 -0.1134698541 -1.2897264219
| 18> H -1.5254369075 -1.5168433759 -0.5049448469
| 19> H -1.0893474663 -0.169251104 1.5316406923
| 20> H -1.8454006208 1.2508309651 0.7498967062
| 21> H 2.2460895303 -0.6018588827 -1.3502459535
| 22> H 2.4367110132 0.9814619361 -0.5633199547
| 23> H 3.0438931062 -1.7328277986 0.7357667148
| 24> H 4.2646869319 -0.6129786581 0.1094474419
| 25> H 3.2745925662 -0.1593493331 1.5047759001
| 26> *
| 27>
| 28>                          ****END OF INPUT****

CARTESIAN COORDINATES (ANGSTROEM)
---------------------------------
  C     -3.443146   -0.959340    0.300152
  C     -2.101150   -0.606381   -0.328121
  C     -1.291092    0.327568    0.583670
  C      0.014329    0.661606   -0.085968
  O      0.192536    1.609062   -0.825185
  O      0.949911   -0.230613    0.201243
  C      2.254215   -0.083412   -0.386466
  C      3.278641   -0.688017    0.555868
  H     -4.001119   -1.620592   -0.357029
  H     -3.296557   -1.460981    1.253012
  H     -4.032778   -0.062002    0.468681
  H     -2.259202   -0.113470   -1.289726
  H     -1.525437   -1.516843   -0.504945
  H     -1.089347   -0.169251    1.531641
  H     -1.845401    1.250831    0.749897
  H      2.246090   -0.601859   -1.350246
  H      2.436711    0.981462   -0.563320
  H      3.043893   -1.732828    0.735767
  H      4.264687   -0.612979    0.109447
  H      3.274593   -0.159349    1.504776

 Total Charge           Charge          ....    0
 Multiplicity           Mult            ....    1
 Number of Electrons    NEL             ....   64
 Basis Dimension        Dim             ....  222

ORBITAL ENERGIES
----------------

  NO   OCC          E(Eh)            E(eV)
   0   2.0000     -18.995500      -516.8938
   1   2.0000     -18.924803      -514.9701
   2   2.0000     -10.149646      -276.1859
   3   2.0000     -10.090307      -274.5712
   4   2.0000     -10.039819      -273.1974
   5   2.0000     -10.038560      -273.1631
   6   2.0000     -10.031579      -272.9731
   7   2.0000     -10.023325      -272.7485
   8   2.0000      -1.070243       -29.1228
   9   2.0000      -0.972353       -26.4591
  10   2.0000      -0.775388       -21.0994
  11   2.0000      -0.742782       -20.2121
  12   2.0000      -0.680939       -18.5293
  13   2.0000      -0.615238       -16.7415
  14   2.0000      -0.567517       -15.4429
  15   2.0000      -0.532793       -14.4980
  16   2.0000      -0.470444       -12.8014
  17   2.0000      -0.456297       -12.4165
  18   2.0000      -0.443184       -12.0596
  19   2.0000      -0.422854       -11.5065
  20   2.0000      -0.405823       -11.0430
  21   2.0000      -0.388196       -10.5633
  22   2.0000      -0.376531       -10.2459
  23   2.0000      -0.361895        -9.8477
  24   2.0000      -0.354890        -9.6571
  25   2.0000      -0.346618        -9.4319
  26   2.0000      -0.326104        -8.8737
  27   2.0000      -0.310591        -8.4516
  28   2.0000      -0.310064        -8.4373
  29   2.0000      -0.307487        -8.3672
  30   2.0000      -0.269112        -7.3229
  31   2.0000      -0.230999        -6.2858
  32   0.0000      -0.012777        -0.3477
  33   0.0000       0.075952         2.0667
  34   0.0000       0.095181         2.5900
  35   0.0000       0.105128         2.8607
  36   0.0000       0.121171         3.2972

MULLIKEN ATOMIC CHARGES
-----------------------
   0 C :   -0.472641
   1 C :   -0.231920
   2 C :   -0.342091
   3 C :    0.418961
   4 O :   -0.432567
   5 O :   -0.175431
   6 C :   -0.154539
   7 C :   -0.442019
   8 H :    0.150640
   9 H :    0.144374
  10 H :    0.146340
  11 H :    0.155278
  12 H :    0.146400
  13 H :    0.154759
  14 H :    0.161762
  15 H :    0.144708
  16 H :    0.177234
  17 H :    0.151709
  18 H :    0.146535
  19 H :    0.152506
Sum of atomic charges:    0.0000000

LOEWDIN ATOMIC CHARGES
----------------------
   0 C :   -0.419413
   1 C :   -0.287561
   2 C :   -0.229806
   3 C :    0.355621
   4 O :   -0.434189
   5 O :   -0.598426
   6 C :    0.032798
   7 C :   -0.386873
   8 H :    0.153045
   9 H :    0.150552
  10 H :    0.151491
  11 H :    0.161008
  12 H :    0.157828
  13 H :    0.175822
  14 H :    0.177110
  15 H :    0.174284
  16 H :    0.190389
  17 H :    0.158486
  18 H :    0.159207
  19 H :    0.158626

  Mayer bond orders larger than 0.100000
B(  0-C ,  1-C ) :   0.8962 B(  0-C ,  8-H ) :   0.9720 B(  0-C ,  9-H ) :   0.9849
B(  0-C , 10-H ) :   0.9837 B(  1-C ,  2-C ) :   0.9303 B(  1-C , 11-H ) :   0.9590
B(  1-C , 12-H ) :   0.9630 B(  2-C ,  3-C ) :   0.9636 B(  2-C , 13-H ) :   0.9792
B(  2-C , 14-H ) :   0.9751 B(  3-C ,  4-O ) :   1.8359 B(  3-C ,  5-O ) :   1.0519
B(  5-O ,  6-C ) :   0.7860 B(  6-C ,  7-C ) :   0.9480 B(  6-C , 15-H ) :   0.9449
B(  6-C , 16-H ) :   0.9656 B(  7-C , 17-H ) :   0.9690 B(  7-C , 18-H ) :   0.9677
B(  7-C , 19-H ) :   0.9747

Dispersion correction           -0.004855879
FINAL SINGLE POINT ENERGY      -386.234817736984

DIPOLE MOMENT
-------------

Method             : SCF
Type of density    : Electron Density
Multiplicity       :   1
Irrep              :   0
Energy             :  -386.2416090511000561 Eh
Relativity type    :
Basis              : AO
                                X                 Y                 Z
Electronic contribution:      2.766262959       4.659149828      -1.746766859
Nuclear contribution   :     -2.594792328      -5.437682877       2.137230614
                        -----------------------------------------
Total Dipole Moment    :      0.171470631      -0.778533049       0.390463755
                        -----------------------------------------
Magnitude (a.u.)       :      0.887681153
Magnitude (Debye)      :      2.256306180

Rotational constants in cm-1:             0.143684             0.030606             0.027130
Rotational constants in MHz :          4307.523777           917.537610           813.347546

                             ****ORCA TERMINATED NORMALLY****
TOTAL RUN TIME: 0 days 0 hours 0 minutes 27 seconds 150 msec
