                         Program Version 6.0.0  -   RELEASE  -
|  1> ! r2scan-3c def2/J RI DEFGRID2 scfconv6 printgap
|  2> %output
|  3>     printlevel normal
|  4> end
|  5> %cpcm
|  6>     smd true
|  7>     smdsolvent "water"
|  8> end
|  9> * xyz 0 1
| 10> C -3.4431460672 -0.9593397672 0.3001524757
| 11> C -2.1011503093 -0.6063806067 -0.3281208732
| 12> C -1.2910915851 0.3275677454 0.5836703211
| 13> C 0.0143290514 0.6616059007 -0.0859677063
| 14> O 0.192536208 1.6090616895 -0.8251853395
| 15> O 0.9499106125 -0.2306131113 0.2012434225
| 16> C 2.2542153767 -0.0834115177 -0.3864655974
| 17> C 3.278640836 -0.6880168473 0.5558677693
| 18> H -4.0011193591 -1.6205915956 -0.357028685
| 19> H -3.2965572939 -1.4609807172 1.2530116091
| 20> H -4.0327780331 -0.0620018294 0.4686810931
| 21> H -2.2592019662 -0.1134698541 -1.2897264219
| 22> H -1.5254369075 -1.5168433759 -0.5049448469
| 23> H -1.0893474663 -0.169251104 1.5316406923
| 24> H -1.8454006208 1.2508309651 0.7498967062
| 25> H 2.2460895303 -0.6018588827 -1.3502459535
| 26> H 2.4367110132 0.9814619361 -0.5633199547
| 27> H 3.0438931062 -1.7328277986 0.7357667148
| 28> H 4.2646869319 -0.6129786581 0.1094474419
| 29> H 3.2745925662 -0.1593493331 1.5047759001
| 30> *
| 31>
| 32>                          ****END OF INPUT****

CARTESIAN COORDINATES (ANGSTROEM)
---------------------------------
  C     -3.443146   -0.959340    0.300152
  C     -2.101150   -0.606381   -0.328121
  C     -1.291092    0.327568    0.583670
  C      0.014329    0.661606   -0.085968
  O      0.192536    1.609062   -0.825185
  O      0.949911   -0.230613    0.201243
  C      2.254215   -0.083412   -0.386466
  C      3.278641   -0.688017    0.555868
  H     -4.001119   -1.620592   -0.357029
  H     -3.296557   -1.460981    1.253012
  H     -4.032778   -0.062002    0.468681
  H     -2.259202   -0.113470   -1.289726
  H     -1.525437   -1.516843   -0.504945
  H     -1.089347   -0.169251    1.531641
  H     -1.845401    1.250831    0.749897
  H      2.246090   -0.601859   -1.350246
  H      2.436711    0.981462   -0.563320
  H      3.043893   -1.732828    0.735767
  H      4.264687   -0.612979    0.109447
  H      3.274593   -0.159349    1.504776

 Total Charge           Charge          ....    0
 Multiplicity           Mult            ....    1
 Number of Electrons    NEL             ....   64
 Basis Dimension        Dim             ....  222

ORBITAL ENERGIES
----------------

  NO   OCC          E(Eh)            E(eV)
   0   2.0000     -19.002231      -517.0770
   1   2.0000     -18.942244      -515.4447
   2   2.0000     -10.161475      -276.5078
   3   2.0000     -10.083087      -274.3747
   4   2.0000     -10.034735      -273.0590
   5   2.0000     -10.030458      -272.9426
   6   2.0000     -10.018615      -272.6204
   7   2.0000     -10.012018      -272.4409
   8   2.0000      -1.078579       -29.3496
   9   2.0000      -0.987690       -26.8764
  10   2.0000      -0.770240       -20.9593
  11   2.0000      -0.734838       -19.9959
  12   2.0000      -0.673998       -18.3404
  13   2.0000      -0.608643       -16.5620
  14   2.0000      -0.559597       -15.2274
  15   2.0000      -0.531638       -14.4666
  16   2.0000      -0.471501       -12.8302
  17   2.0000      -0.460035       -12.5182
  18   2.0000      -0.442891       -12.0517
  19   2.0000      -0.425452       -11.5771
  20   2.0000      -0.403570       -10.9817
  21   2.0000      -0.381904       -10.3921
  22   2.0000      -0.366051        -9.9607
  23   2.0000      -0.358795        -9.7633
  24   2.0000      -0.347344        -9.4517
  25   2.0000      -0.340271        -9.2593
  26   2.0000      -0.319811        -8.7025
  27   2.0000      -0.310116        -8.4387
  28   2.0000      -0.304997        -8.2994
  29   2.0000      -0.300285        -8.1712
  30   2.0000      -0.275967        -7.5095
  31   2.0000      -0.248312        -6.7569
  32   0.0000      -0.022184        -0.6037
  33   0.0000       0.078583         2.1383
  34   0.0000       0.104303         2.8382
  35   0.0000       0.115717         3.1488
  36   0.0000       0.128979         3.5097

MULLIKEN ATOMIC CHARGES
-----------------------
   0 C :   -0.516752
   1 C :   -0.220010
   2 C :   -0.366510
   3 C :    0.458583
   4 O :   -0.519516
   5 O :   -0.191635
   6 C :   -0.149032
   7 C :   -0.487943
   8 H :    0.162472
   9 H :    0.158931
  10 H :    0.159037
  11 H :    0.157884
  12 H :    0.157176
  13 H :    0.175975
  14 H :    0.176532
  15 H :    0.171357
  16 H :    0.175259
  17 H :    0.164394
  18 H :    0.168265
  19 H :    0.165533
Sum of atomic charges:    0.0000000

LOEWDIN ATOMIC CHARGES
----------------------
   0 C :   -0.424749
   1 C :   -0.285302
   2 C :   -0.227971
   3 C :    0.364745
   4 O :   -0.497146
   5 O :   -0.599248
   6 C :    0.036718
   7 C :   -0.390135
   8 H :    0.156415
   9 H :    0.154870
  10 H :    0.154846
  11 H :    0.161373
  12 H :    0.161498
  13 H :    0.185125
  14 H :    0.182560
  15 H :    0.184046
  16 H :    0.190492
  17 H :    0.162156
  18 H :    0.167953
  19 H :    0.161754

  Mayer bond orders larger than 0.100000
B(  0-C ,  1-C ) :   0.8884 B(  0-C ,  8-H ) :   0.9688 B(  0-C ,  9-H ) :   0.9819
B(  0-C , 10-H ) :   0.9813 B(  1-C ,  2-C ) :   0.9197 B(  1-C , 11-H ) :   0.9583
B(  1-C , 12-H ) :   0.9599 B(  2-C ,  3-C ) :   0.9606 B(  2-C , 13-H ) :   0.9686
B(  2-C , 14-H ) :   0.9733 B(  3-C ,  4-O ) :   1.7642 B(  3-C ,  5-O ) :   1.0803
B(  5-O ,  6-C ) :   0.7737 B(  6-C ,  7-C ) :   0.9450 B(  6-C , 15-H ) :   0.9361
B(  6-C , 16-H ) :   0.9607 B(  7-C , 17-H ) :   0.9660 B(  7-C , 18-H ) :   0.9613
B(  7-C , 19-H ) :   0.9730

Dispersion correction           -0.004855879
FINAL SINGLE POINT ENERGY      -386.240189187478

DIPOLE MOMENT
-------------

Method             : SCF
Type of density    : Electron Density
Multiplicity       :   1
Irrep              :   0
Energy             :  -386.2469805015937823 Eh
Relativity type    :
Basis              : AO
                                X                 Y                 Z
Electronic contribution:      2.816813848       4.359615901      -1.575844883
Nuclear contribution   :     -2.594792328      -5.437682877       2.137230614
                        -----------------------------------------
Total Dipole Moment    :      0.222021520      -1.078066976       0.561385731
                        -----------------------------------------
Magnitude (a.u.)       :      1.235587269
Magnitude (Debye)      :      3.140613249

Rotational constants in cm-1:             0.143684             0.030606             0.027130
Rotational constants in MHz :          4307.523777           917.537610           813.347546

                             ****ORCA TERMINATED NORMALLY****
TOTAL RUN TIME: 0 days 0 hours 0 minutes 36 seconds 334 msec
