                         Program Version 6.0.0  -   RELEASE  -
|  1> ! pbe def2-sv(p) def2/J RI DEFGRID1 loosescf d4 GCP(DFT/SV(P)) printgap
|  2> %output
|  3>     printlevel normal
|  4> end
|  5> * xyz 0 1
|  6> C -3.8301766721 0.3208396193 0.3904489742
|  7> C -2.6691765043 -0.5879942083 0.0047841937
|  8> C -1.3357398706 0.1527609554 0.0656999716
|  9> C -0.1627314551 -0.7612133377 -0.307417507
| 10> C 1.1209480367 0.024701624 -0.3365963876
| 11> O 1.3318982776 0.9845941129 -1.0484093113
| 12> O 2.0034813802 -0.445205267 0.5368258691
| 13> C 3.2731655698 0.2070692556 0.6386709419
| 14> H -3.8854588655 1.173458045 -0.2824699398
| 15> H -4.7709535312 -0.2208731338 0.3383461964
| 16> H -3.7026431118 0.6933019919 1.4042104066
| 17> H -2.6369070808 -1.4437978127 0.6815866522
| 18> H -2.8252998591 -0.9670496514 -1.0068387268
| 19> H -1.1818028539 0.5428171256 1.074169302
| 20> H -1.3503009809 1.0016056269 -0.6213878137
| 21> H -0.3313013851 -1.1681187909 -1.3059850574
| 22> H -0.0607682952 -1.5773953241 0.4063867583
| 23> H 3.9516610401 -0.2031166961 -0.1094105026
| 24> H 3.6372330092 0.0009572295 1.6407567222
| 25> H 3.1556472514 1.2784578392 0.4723061991
| 26> *
| 27>
| 28>                          ****END OF INPUT****

CARTESIAN COORDINATES (ANGSTROEM)
---------------------------------
  C     -3.830177    0.320840    0.390449
  C     -2.669177   -0.587994    0.004784
  C     -1.335740    0.152761    0.065700
  C     -0.162731   -0.761213   -0.307418
  C      1.120948    0.024702   -0.336596
  O      1.331898    0.984594   -1.048409
  O      2.003481   -0.445205    0.536826
  C      3.273166    0.207069    0.638671
  H     -3.885459    1.173458   -0.282470
  H     -4.770954   -0.220873    0.338346
  H     -3.702643    0.693302    1.404210
  H     -2.636907   -1.443798    0.681587
  H     -2.825300   -0.967050   -1.006839
  H     -1.181803    0.542817    1.074169
  H     -1.350301    1.001606   -0.621388
  H     -0.331301   -1.168119   -1.305985
  H     -0.060768   -1.577395    0.406387
  H      3.951661   -0.203117   -0.109411
  H      3.637233    0.000957    1.640757
  H      3.155647    1.278458    0.472306

 Total Charge           Charge          ....    0
 Multiplicity           Mult            ....    1
 Number of Electrons    NEL             ....   64
 Basis Dimension        Dim             ....  136

ORBITAL ENERGIES
----------------

  NO   OCC          E(Eh)            E(eV)
   0   2.0000     -18.799103      -511.5496
   1   2.0000     -18.729947      -509.6678
   2   2.0000     -10.003447      -272.2076
   3   2.0000      -9.940398      -270.4920
   4   2.0000      -9.896087      -269.2862
   5   2.0000      -9.890359      -269.1304
   6   2.0000      -9.887093      -269.0415
   7   2.0000      -9.875995      -268.7395
   8   2.0000      -1.004097       -27.3229
   9   2.0000      -0.907233       -24.6871
  10   2.0000      -0.730929       -19.8896
  11   2.0000      -0.686779       -18.6882
  12   2.0000      -0.646857       -17.6019
  13   2.0000      -0.577564       -15.7163
  14   2.0000      -0.521937       -14.2026
  15   2.0000      -0.504489       -13.7279
  16   2.0000      -0.443694       -12.0735
  17   2.0000      -0.438527       -11.9329
  18   2.0000      -0.428758       -11.6671
  19   2.0000      -0.409559       -11.1447
  20   2.0000      -0.389699       -10.6043
  21   2.0000      -0.371686       -10.1141
  22   2.0000      -0.370090       -10.0706
  23   2.0000      -0.351732        -9.5711
  24   2.0000      -0.332764        -9.0550
  25   2.0000      -0.313741        -8.5373
  26   2.0000      -0.304992        -8.2992
  27   2.0000      -0.297401        -8.0927
  28   2.0000      -0.289001        -7.8641
  29   2.0000      -0.285987        -7.7821
  30   2.0000      -0.255679        -6.9574
  31   2.0000      -0.216728        -5.8975
  32   0.0000      -0.018165        -0.4943
  33   0.0000       0.039278         1.0688
  34   0.0000       0.055491         1.5100
  35   0.0000       0.067368         1.8332
  36   0.0000       0.070722         1.9244

MULLIKEN ATOMIC CHARGES
-----------------------
   0 C :   -0.257028
   1 C :   -0.168831
   2 C :   -0.231756
   3 C :   -0.106845
   4 C :    0.106507
   5 O :   -0.212161
   6 O :   -0.236690
   7 C :   -0.118739
   8 H :    0.100401
   9 H :    0.102731
  10 H :    0.097791
  11 H :    0.083595
  12 H :    0.084937
  13 H :    0.088628
  14 H :    0.105027
  15 H :    0.104200
  16 H :    0.091219
  17 H :    0.119089
  18 H :    0.121224
  19 H :    0.126698
Sum of atomic charges:   -0.0000000

LOEWDIN ATOMIC CHARGES
----------------------
   0 C :   -0.338887
   1 C :   -0.233725
   2 C :   -0.219236
   3 C :   -0.243403
   4 C :    0.035657
   5 O :   -0.173328
   6 O :   -0.073678
   7 C :   -0.206398
   8 H :    0.118503
   9 H :    0.119278
  10 H :    0.117287
  11 H :    0.114175
  12 H :    0.115350
  13 H :    0.117151
  14 H :    0.123277
  15 H :    0.139025
  16 H :    0.126952
  17 H :    0.119592
  18 H :    0.120407
  19 H :    0.122001

  Mayer bond orders larger than 0.100000
B(  0-C ,  1-C ) :   1.1603 B(  0-C ,  8-H ) :   0.9541 B(  0-C ,  9-H ) :   0.9527
B(  0-C , 10-H ) :   0.9544 B(  1-C ,  2-C ) :   1.1351 B(  1-C , 11-H ) :   0.9238
B(  1-C , 12-H ) :   0.9250 B(  2-C ,  3-C ) :   1.1269 B(  2-C , 13-H ) :   0.9264
B(  2-C , 14-H ) :   0.9172 B(  3-C ,  4-C ) :   1.0166 B(  3-C , 15-H ) :   0.8902
B(  3-C , 16-H ) :   0.9052 B(  4-C ,  5-O ) :   2.0555 B(  4-C ,  6-O ) :   1.2241
B(  6-O ,  7-C ) :   0.9379 B(  7-C , 17-H ) :   0.9587 B(  7-C , 18-H ) :   0.9604
B(  7-C , 19-H ) :   0.9392

Dispersion correction           -0.014430308
FINAL SINGLE POINT ENERGY      -385.452815684579

DIPOLE MOMENT
-------------

Method             : SCF
Type of density    : Electron Density
Multiplicity       :   1
Irrep              :   0
Energy             :  -385.5279320941180004 Eh
Relativity type    :
Basis              : AO
                                X                 Y                 Z
Electronic contribution:      9.438730332       0.385564004      -2.011337762
Nuclear contribution   :     -9.333048765      -0.826739004       2.517649498
                        -----------------------------------------
Total Dipole Moment    :      0.105681567      -0.441174999       0.506311736
                        -----------------------------------------
Magnitude (a.u.)       :      0.679820232
Magnitude (Debye)      :      1.727965705

Rotational constants in cm-1:             0.199511             0.025542             0.024618
Rotational constants in MHz :          5981.179630           765.740141           738.034064

                             ****ORCA TERMINATED NORMALLY****
TOTAL RUN TIME: 0 days 0 hours 0 minutes 10 seconds 439 msec
