                         Program Version 6.0.0  -   RELEASE  -
|  1> ! pbe def2-sv(p) def2/J RI DEFGRID1 loosescf d4 GCP(DFT/SV(P)) printgap
|  2> %output
|  3>     printlevel normal
|  4> end
|  5> * xyz 0 1
|  6> C 2.1767271299 1.1408338749 -0.5235718673
|  7> C 1.1981870323 0.2726698782 0.2671740849
|  8> C 1.8703653472 -1.044685535 0.6786271904
|  9> N -0.0014500661 0.083118019 -0.5346034592
| 10> C -1.2101481639 -0.3038901499 0.1842989634
| 11> C -2.1451233471 -1.0553298642 -0.759258057
| 12> C -1.9002035742 0.9534359893 0.7189128499
| 13> H 1.694574021 2.0699047964 -0.8119346943
| 14> H 3.0535556553 1.366152302 0.0770482453
| 15> H 2.4933164836 0.6217491362 -1.425005055
| 16> H 0.9013207696 0.8147367425 1.1720046554
| 17> H 2.2094259901 -1.5828588231 -0.2049629329
| 18> H 1.1760965089 -1.6799313518 1.2254028028
| 19> H 2.7282315202 -0.8485211196 1.3160119261
| 20> H 0.1963673991 -0.5848715972 -1.2723701443
| 21> H -0.9772024324 -0.963271101 1.0417066979
| 22> H -3.0743940723 -1.3001391388 -0.2520413661
| 23> H -2.3696353002 -0.4359993831 -1.6238053831
| 24> H -1.6850044817 -1.980631706 -1.1007874854
| 25> H -2.1598314615 1.6055207582 -0.110052126
| 26> H -1.2417903633 1.4977601826 1.3903938039
| 27> H -2.8033795744 0.6858325359 1.260605846
| 28> *
| 29>
| 30>                          ****END OF INPUT****

CARTESIAN COORDINATES (ANGSTROEM)
---------------------------------
  C      2.176727    1.140834   -0.523572
  C      1.198187    0.272670    0.267174
  C      1.870365   -1.044686    0.678627
  N     -0.001450    0.083118   -0.534603
  C     -1.210148   -0.303890    0.184299
  C     -2.145123   -1.055330   -0.759258
  C     -1.900204    0.953436    0.718913
  H      1.694574    2.069905   -0.811935
  H      3.053556    1.366152    0.077048
  H      2.493316    0.621749   -1.425005
  H      0.901321    0.814737    1.172005
  H      2.209426   -1.582859   -0.204963
  H      1.176097   -1.679931    1.225403
  H      2.728232   -0.848521    1.316012
  H      0.196367   -0.584872   -1.272370
  H     -0.977202   -0.963271    1.041707
  H     -3.074394   -1.300139   -0.252041
  H     -2.369635   -0.435999   -1.623805
  H     -1.685004   -1.980632   -1.100787
  H     -2.159831    1.605521   -0.110052
  H     -1.241790    1.497760    1.390394
  H     -2.803380    0.685833    1.260606

 Total Charge           Charge          ....    0
 Multiplicity           Mult            ....    1
 Number of Electrons    NEL             ....   58
 Basis Dimension        Dim             ....  128

ORBITAL ENERGIES
----------------

  NO   OCC          E(Eh)            E(eV)
   0   2.0000     -13.959802      -379.8655
   1   2.0000      -9.914196      -269.7790
   2   2.0000      -9.913987      -269.7733
   3   2.0000      -9.873643      -268.6755
   4   2.0000      -9.871258      -268.6106
   5   2.0000      -9.865867      -268.4639
   6   2.0000      -9.864339      -268.4223
   7   2.0000      -0.818523       -22.2731
   8   2.0000      -0.706942       -19.2369
   9   2.0000      -0.649160       -17.6645
  10   2.0000      -0.611011       -16.6265
  11   2.0000      -0.608426       -16.5561
  12   2.0000      -0.519888       -14.1469
  13   2.0000      -0.509219       -13.8566
  14   2.0000      -0.436688       -11.8829
  15   2.0000      -0.411547       -11.1988
  16   2.0000      -0.399969       -10.8837
  17   2.0000      -0.379946       -10.3388
  18   2.0000      -0.363597        -9.8940
  19   2.0000      -0.355431        -9.6718
  20   2.0000      -0.339689        -9.2434
  21   2.0000      -0.338675        -9.2158
  22   2.0000      -0.328402        -8.9363
  23   2.0000      -0.308603        -8.3975
  24   2.0000      -0.300894        -8.1877
  25   2.0000      -0.294282        -8.0078
  26   2.0000      -0.286485        -7.7956
  27   2.0000      -0.282010        -7.6739
  28   2.0000      -0.168010        -4.5718
  29   0.0000       0.030147         0.8203
  30   0.0000       0.055973         1.5231
  31   0.0000       0.058835         1.6010
  32   0.0000       0.073038         1.9875
  33   0.0000       0.093976         2.5572

MULLIKEN ATOMIC CHARGES
-----------------------
   0 C :   -0.212803
   1 C :   -0.110044
   2 C :   -0.251481
   3 N :   -0.326463
   4 C :   -0.078144
   5 C :   -0.269311
   6 C :   -0.221567
   7 H :    0.101755
   8 H :    0.091040
   9 H :    0.084199
  10 H :    0.075973
  11 H :    0.086521
  12 H :    0.104917
  13 H :    0.096162
  14 H :    0.190786
  15 H :    0.057071
  16 H :    0.102513
  17 H :    0.102919
  18 H :    0.098327
  19 H :    0.092839
  20 H :    0.097873
  21 H :    0.086919
Sum of atomic charges:   -0.0000000

LOEWDIN ATOMIC CHARGES
----------------------
   0 C :   -0.335374
   1 C :   -0.105127
   2 C :   -0.349063
   3 N :   -0.244482
   4 C :   -0.101404
   5 C :   -0.337316
   6 C :   -0.337536
   7 H :    0.120425
   8 H :    0.116015
   9 H :    0.113732
  10 H :    0.111817
  11 H :    0.113162
  12 H :    0.116314
  13 H :    0.119778
  14 H :    0.202972
  15 H :    0.090520
  16 H :    0.122907
  17 H :    0.120605
  18 H :    0.114263
  19 H :    0.118746
  20 H :    0.114822
  21 H :    0.114223

  Mayer bond orders larger than 0.100000
B(  0-C ,  1-C ) :   1.1151 B(  0-C ,  7-H ) :   0.9483 B(  0-C ,  8-H ) :   0.9486
B(  0-C ,  9-H ) :   0.9466 B(  1-C ,  2-C ) :   1.1059 B(  1-C ,  3-N ) :   1.0400
B(  1-C , 10-H ) :   0.8959 B(  2-C , 11-H ) :   0.9425 B(  2-C , 12-H ) :   0.9429
B(  2-C , 13-H ) :   0.9434 B(  3-N ,  4-C ) :   1.0412 B(  3-N , 14-H ) :   0.8740
B(  4-C ,  5-C ) :   1.1163 B(  4-C ,  6-C ) :   1.1130 B(  4-C , 15-H ) :   0.8843
B(  5-C , 16-H ) :   0.9503 B(  5-C , 17-H ) :   0.9435 B(  5-C , 18-H ) :   0.9458
B(  6-C , 19-H ) :   0.9435 B(  6-C , 20-H ) :   0.9429 B(  6-C , 21-H ) :   0.9443

Dispersion correction           -0.017278247
FINAL SINGLE POINT ENERGY      -291.674339468375

DIPOLE MOMENT
-------------

Method             : SCF
Type of density    : Electron Density
Multiplicity       :   1
Irrep              :   0
Energy             :  -291.7538017308852432 Eh
Relativity type    :
Basis              : AO
                                X                 Y                 Z
Electronic contribution:     -0.063719183       0.334150961      -0.551555574
Nuclear contribution   :      0.132883415      -0.669926452       0.637106772
                        -----------------------------------------
Total Dipole Moment    :      0.069164232      -0.335775491       0.085551198
                        -----------------------------------------
Magnitude (a.u.)       :      0.353338193
Magnitude (Debye)      :      0.898114313

Rotational constants in cm-1:             0.137131             0.048694             0.044345
Rotational constants in MHz :          4111.074508          1459.809527          1329.424404

                             ****ORCA TERMINATED NORMALLY****
TOTAL RUN TIME: 0 days 0 hours 0 minutes 10 seconds 262 msec
