                         Program Version 6.0.0  -   RELEASE  -
|  1> ! r2scan-3c def2/J RI DEFGRID2 scfconv6 printgap
|  2> %output
|  3>     printlevel normal
|  4> end
|  5> * xyz 0 1
|  6> C -3.2988919577 -0.5771361508 0.5623057278
|  7> C -2.5170439037 -0.2652044256 -0.708915764
|  8> C -1.8035318801 1.0855804023 -0.6663148527
|  9> C -0.7202381145 1.1926690142 0.3859422185
| 10> I 0.9542514819 -0.1597826268 0.0414790146
| 11> H -2.635718619 -0.7144892114 1.4129141537
| 12> H -3.9945358861 0.2273410716 0.7910882601
| 13> H -3.866324451 -1.495194671 0.4335292163
| 14> H -3.2053541038 -0.2567944388 -1.5560924047
| 15> H -1.7861999576 -1.0569807692 -0.8896517004
| 16> H -1.3772984369 1.2958692975 -1.6499729312
| 17> H -2.5349283441 1.8690789092 -0.4466073629
| 18> H -1.089520396 0.9531475813 1.3782591025
| 19> H -0.277983245 2.1849529592 0.3921047815
| 20> *
| 21>
| 22>                          ****END OF INPUT****

CARTESIAN COORDINATES (ANGSTROEM)
---------------------------------
  C     -3.298892   -0.577136    0.562306
  C     -2.517044   -0.265204   -0.708916
  C     -1.803532    1.085580   -0.666315
  C     -0.720238    1.192669    0.385942
  I      0.954251   -0.159783    0.041479
  H     -2.635719   -0.714489    1.412914
  H     -3.994536    0.227341    0.791088
  H     -3.866324   -1.495195    0.433529
  H     -3.205354   -0.256794   -1.556092
  H     -1.786200   -1.056981   -0.889652
  H     -1.377298    1.295869   -1.649973
  H     -2.534928    1.869079   -0.446607
  H     -1.089520    0.953148    1.378259
  H     -0.277983    2.184953    0.392105

 Total Charge           Charge          ....    0
 Multiplicity           Mult            ....    1
 Number of Electrons    NEL             ....   58
 Basis Dimension        Dim             ....  157

ORBITAL ENERGIES
----------------

  NO   OCC          E(Eh)            E(eV)
   0   2.0000     -10.084577      -274.4153
   1   2.0000     -10.045421      -273.3498
   2   2.0000     -10.032307      -272.9929
   3   2.0000     -10.023029      -272.7405
   4   2.0000      -6.803509      -185.1329
   5   2.0000      -4.821810      -131.2081
   6   2.0000      -4.806056      -130.7794
   7   2.0000      -4.805839      -130.7735
   8   2.0000      -1.857231       -50.5378
   9   2.0000      -1.853147       -50.4267
  10   2.0000      -1.852949       -50.4213
  11   2.0000      -1.840195       -50.0742
  12   2.0000      -1.840173       -50.0736
  13   2.0000      -0.784574       -21.3493
  14   2.0000      -0.714669       -19.4471
  15   2.0000      -0.651499       -17.7282
  16   2.0000      -0.603261       -16.4156
  17   2.0000      -0.538963       -14.6659
  18   2.0000      -0.448791       -12.2122
  19   2.0000      -0.441775       -12.0213
  20   2.0000      -0.390798       -10.6342
  21   2.0000      -0.379340       -10.3224
  22   2.0000      -0.373874       -10.1736
  23   2.0000      -0.329615        -8.9693
  24   2.0000      -0.310142        -8.4394
  25   2.0000      -0.308207        -8.3867
  26   2.0000      -0.300405        -8.1744
  27   2.0000      -0.232429        -6.3247
  28   2.0000      -0.230469        -6.2714
  29   0.0000      -0.054916        -1.4943
  30   0.0000       0.080454         2.1893
  31   0.0000       0.108234         2.9452
  32   0.0000       0.112846         3.0707
  33   0.0000       0.116557         3.1717

MULLIKEN ATOMIC CHARGES
-----------------------
   0 C :   -0.480191
   1 C :   -0.223994
   2 C :   -0.248045
   3 C :   -0.301570
   4 I :   -0.147765
   5 H :    0.149628
   6 H :    0.143049
   7 H :    0.150205
   8 H :    0.144590
   9 H :    0.154915
  10 H :    0.161618
  11 H :    0.143716
  12 H :    0.175325
  13 H :    0.178520
Sum of atomic charges:   -0.0000000

LOEWDIN ATOMIC CHARGES
----------------------
   0 C :   -0.425062
   1 C :   -0.323106
   2 C :   -0.324443
   3 C :   -0.408565
   4 I :    0.054164
   5 H :    0.149464
   6 H :    0.149589
   7 H :    0.154512
   8 H :    0.154390
   9 H :    0.161758
  10 H :    0.163527
  11 H :    0.164071
  12 H :    0.164359
  13 H :    0.165341

  Mayer bond orders larger than 0.100000
B(  0-C ,  1-C ) :   0.8989 B(  0-C ,  5-H ) :   0.9801 B(  0-C ,  6-H ) :   0.9810
B(  0-C ,  7-H ) :   0.9672 B(  1-C ,  2-C ) :   0.9111 B(  1-C ,  8-H ) :   0.9647
B(  1-C ,  9-H ) :   0.9636 B(  2-C ,  3-C ) :   0.9057 B(  2-C , 10-H ) :   0.9641
B(  2-C , 11-H ) :   0.9556 B(  3-C ,  4-I ) :   0.9589 B(  3-C , 12-H ) :   0.9623
B(  3-C , 13-H ) :   0.9466

Dispersion correction           -0.003697820
FINAL SINGLE POINT ENERGY      -455.529299134295

DIPOLE MOMENT
-------------

Method             : SCF
Type of density    : Electron Density
Multiplicity       :   1
Irrep              :   0
Energy             :  -455.5319576091599743 Eh
Relativity type    :
Basis              : AO
                                X                 Y                 Z
Electronic contribution:     87.971340915     -13.985867304       3.143633677
Nuclear contribution   :    -88.717699335      14.413729627      -3.135533806
                        -----------------------------------------
Total Dipole Moment    :     -0.746358421       0.427862323       0.008099871
                        -----------------------------------------
Magnitude (a.u.)       :      0.860338693
Magnitude (Debye)      :      2.186807169

Rotational constants in cm-1:             0.208692             0.036867             0.034747
Rotational constants in MHz :          6256.434464          1105.253356          1041.684856

                             ****ORCA TERMINATED NORMALLY****
TOTAL RUN TIME: 0 days 0 hours 0 minutes 16 seconds 532 msec
