                         Program Version 6.0.0  -   RELEASE  -
|  1> ! r2scan-3c def2/J RI DEFGRID2 scfconv6 printgap
|  2> %output
|  3>     printlevel normal
|  4> end
|  5> %cpcm
|  6>     smd true
|  7>     smdsolvent "water"
|  8> end
|  9> * xyz 0 1
| 10> C -3.2988919577 -0.5771361508 0.5623057278
| 11> C -2.5170439037 -0.2652044256 -0.708915764
| 12> C -1.8035318801 1.0855804023 -0.6663148527
| 13> C -0.7202381145 1.1926690142 0.3859422185
| 14> I 0.9542514819 -0.1597826268 0.0414790146
| 15> H -2.635718619 -0.7144892114 1.4129141537
| 16> H -3.9945358861 0.2273410716 0.7910882601
| 17> H -3.866324451 -1.495194671 0.4335292163
| 18> H -3.2053541038 -0.2567944388 -1.5560924047
| 19> H -1.7861999576 -1.0569807692 -0.8896517004
| 20> H -1.3772984369 1.2958692975 -1.6499729312
| 21> H -2.5349283441 1.8690789092 -0.4466073629
| 22> H -1.089520396 0.9531475813 1.3782591025
| 23> H -0.277983245 2.1849529592 0.3921047815
| 24> *
| 25>
| 26>                          ****END OF INPUT****

CARTESIAN COORDINATES (ANGSTROEM)
---------------------------------
  C     -3.298892   -0.577136    0.562306
  C     -2.517044   -0.265204   -0.708916
  C     -1.803532    1.085580   -0.666315
  C     -0.720238    1.192669    0.385942
  I      0.954251   -0.159783    0.041479
  H     -2.635719   -0.714489    1.412914
  H     -3.994536    0.227341    0.791088
  H     -3.866324   -1.495195    0.433529
  H     -3.205354   -0.256794   -1.556092
  H     -1.786200   -1.056981   -0.889652
  H     -1.377298    1.295869   -1.649973
  H     -2.534928    1.869079   -0.446607
  H     -1.089520    0.953148    1.378259
  H     -0.277983    2.184953    0.392105

 Total Charge           Charge          ....    0
 Multiplicity           Mult            ....    1
 Number of Electrons    NEL             ....   58
 Basis Dimension        Dim             ....  157

ORBITAL ENERGIES
----------------

  NO   OCC          E(Eh)            E(eV)
   0   2.0000     -10.070815      -274.0408
   1   2.0000     -10.029217      -272.9089
   2   2.0000     -10.018998      -272.6308
   3   2.0000     -10.008586      -272.3475
   4   2.0000      -6.800832      -185.0601
   5   2.0000      -4.818188      -131.1096
   6   2.0000      -4.803875      -130.7201
   7   2.0000      -4.803646      -130.7138
   8   2.0000      -1.853802       -50.4445
   9   2.0000      -1.850097       -50.3437
  10   2.0000      -1.849894       -50.3382
  11   2.0000      -1.838364       -50.0244
  12   2.0000      -1.838349       -50.0240
  13   2.0000      -0.769985       -20.9524
  14   2.0000      -0.702202       -19.1079
  15   2.0000      -0.642621       -17.4866
  16   2.0000      -0.591560       -16.0972
  17   2.0000      -0.524740       -14.2789
  18   2.0000      -0.432997       -11.7825
  19   2.0000      -0.427037       -11.6203
  20   2.0000      -0.376370       -10.2415
  21   2.0000      -0.364038        -9.9060
  22   2.0000      -0.359040        -9.7700
  23   2.0000      -0.317830        -8.6486
  24   2.0000      -0.295276        -8.0349
  25   2.0000      -0.293899        -7.9974
  26   2.0000      -0.287735        -7.8297
  27   2.0000      -0.232733        -6.3330
  28   2.0000      -0.230337        -6.2678
  29   0.0000      -0.044861        -1.2207
  30   0.0000       0.096277         2.6198
  31   0.0000       0.122734         3.3398
  32   0.0000       0.123893         3.3713
  33   0.0000       0.130209         3.5432

MULLIKEN ATOMIC CHARGES
-----------------------
   0 C :   -0.515446
   1 C :   -0.236127
   2 C :   -0.258548
   3 C :   -0.280638
   4 I :   -0.216005
   5 H :    0.160204
   6 H :    0.156018
   7 H :    0.156984
   8 H :    0.154631
   9 H :    0.148243
  10 H :    0.168198
  11 H :    0.165263
  12 H :    0.197064
  13 H :    0.200160
Sum of atomic charges:   -0.0000000

LOEWDIN ATOMIC CHARGES
----------------------
   0 C :   -0.432866
   1 C :   -0.325271
   2 C :   -0.322722
   3 C :   -0.394940
   4 I :    0.015632
   5 H :    0.152301
   6 H :    0.153954
   7 H :    0.154559
   8 H :    0.156978
   9 H :    0.157633
  10 H :    0.164804
  11 H :    0.173209
  12 H :    0.172927
  13 H :    0.173803

  Mayer bond orders larger than 0.100000
B(  0-C ,  1-C ) :   0.8970 B(  0-C ,  5-H ) :   0.9770 B(  0-C ,  6-H ) :   0.9776
B(  0-C ,  7-H ) :   0.9666 B(  1-C ,  2-C ) :   0.9025 B(  1-C ,  8-H ) :   0.9651
B(  1-C ,  9-H ) :   0.9684 B(  2-C ,  3-C ) :   0.9048 B(  2-C , 10-H ) :   0.9655
B(  2-C , 11-H ) :   0.9505 B(  3-C ,  4-I ) :   0.9032 B(  3-C , 12-H ) :   0.9562
B(  3-C , 13-H ) :   0.9409

Dispersion correction           -0.003697820
FINAL SINGLE POINT ENERGY      -455.531255915941

DIPOLE MOMENT
-------------

Method             : SCF
Type of density    : Electron Density
Multiplicity       :   1
Irrep              :   0
Energy             :  -455.5339143908056485 Eh
Relativity type    :
Basis              : AO
                                X                 Y                 Z
Electronic contribution:     87.750923415     -13.762457633       3.191939563
Nuclear contribution   :    -88.717699335      14.413729627      -3.135533806
                        -----------------------------------------
Total Dipole Moment    :     -0.966775921       0.651271994       0.056405758
                        -----------------------------------------
Magnitude (a.u.)       :      1.167044344
Magnitude (Debye)      :      2.966390979

Rotational constants in cm-1:             0.208692             0.036867             0.034747
Rotational constants in MHz :          6256.434464          1105.253356          1041.684856

                             ****ORCA TERMINATED NORMALLY****
TOTAL RUN TIME: 0 days 0 hours 0 minutes 16 seconds 884 msec
