                         Program Version 6.0.0  -   RELEASE  -
|  1> ! r2scan-3c def2/J RI DEFGRID2 scfconv6 printgap
|  2> %output
|  3>     printlevel normal
|  4> end
|  5> * xyz 0 1
|  6> C -3.6309537698 -0.5013299256 0.3573485786
|  7> C -2.2637197491 -0.4717423516 -0.3130420062
|  8> C -1.2139267919 0.1864980754 0.5918884375
|  9> C 0.102341813 0.2777181512 -0.1332369825
| 10> O 0.3001460802 0.9529931583 -1.122262255
| 11> O 1.0213226384 -0.5028293453 0.4202926061
| 12> C 2.3350791327 -0.5389658685 -0.1634840119
| 13> C 3.2097731552 0.5780621152 0.3846225188
| 14> H -4.3561209833 -0.9820657684 -0.2932270816
| 15> H -3.5842989416 -1.0547156324 1.2916303962
| 16> H -3.9735936289 0.5080064447 0.5698514033
| 17> H -2.317338123 0.0870610488 -1.2495265034
| 18> H -1.9463851681 -1.4898093523 -0.5477256373
| 19> H -1.0765619227 -0.3904146772 1.5052218592
| 20> H -1.5391433968 1.1982466889 0.8380650825
| 21> H 2.7278662581 -1.5198123132 0.1057147993
| 22> H 2.2358496048 -0.4526232124 -1.2497740712
| 23> H 2.8018300992 1.5447622682 0.0977923041
| 24> H 3.2552234682 0.5201362914 1.4687127822
| 25> H 4.2110529022 0.4833902271 -0.0226270614
| 26> *
| 27>
| 28>                          ****END OF INPUT****

CARTESIAN COORDINATES (ANGSTROEM)
---------------------------------
  C     -3.630954   -0.501330    0.357349
  C     -2.263720   -0.471742   -0.313042
  C     -1.213927    0.186498    0.591888
  C      0.102342    0.277718   -0.133237
  O      0.300146    0.952993   -1.122262
  O      1.021323   -0.502829    0.420293
  C      2.335079   -0.538966   -0.163484
  C      3.209773    0.578062    0.384623
  H     -4.356121   -0.982066   -0.293227
  H     -3.584299   -1.054716    1.291630
  H     -3.973594    0.508006    0.569851
  H     -2.317338    0.087061   -1.249527
  H     -1.946385   -1.489809   -0.547726
  H     -1.076562   -0.390415    1.505222
  H     -1.539143    1.198247    0.838065
  H      2.727866   -1.519812    0.105715
  H      2.235850   -0.452623   -1.249774
  H      2.801830    1.544762    0.097792
  H      3.255223    0.520136    1.468713
  H      4.211053    0.483390   -0.022627

 Total Charge           Charge          ....    0
 Multiplicity           Mult            ....    1
 Number of Electrons    NEL             ....   64
 Basis Dimension        Dim             ....  222

ORBITAL ENERGIES
----------------

  NO   OCC          E(Eh)            E(eV)
   0   2.0000     -18.996068      -516.9093
   1   2.0000     -18.925954      -515.0014
   2   2.0000     -10.150316      -276.2042
   3   2.0000     -10.090330      -274.5719
   4   2.0000     -10.039880      -273.1990
   5   2.0000     -10.035928      -273.0915
   6   2.0000     -10.028148      -272.8798
   7   2.0000     -10.022101      -272.7152
   8   2.0000      -1.070348       -29.1257
   9   2.0000      -0.973935       -26.5021
  10   2.0000      -0.773045       -21.0356
  11   2.0000      -0.739691       -20.1280
  12   2.0000      -0.680311       -18.5122
  13   2.0000      -0.622171       -16.9301
  14   2.0000      -0.565526       -15.3887
  15   2.0000      -0.522314       -14.2129
  16   2.0000      -0.472526       -12.8581
  17   2.0000      -0.455607       -12.3977
  18   2.0000      -0.432349       -11.7648
  19   2.0000      -0.428839       -11.6693
  20   2.0000      -0.410701       -11.1757
  21   2.0000      -0.388615       -10.5748
  22   2.0000      -0.378292       -10.2938
  23   2.0000      -0.360707        -9.8153
  24   2.0000      -0.355786        -9.6814
  25   2.0000      -0.338529        -9.2118
  26   2.0000      -0.325889        -8.8679
  27   2.0000      -0.313867        -8.5408
  28   2.0000      -0.306815        -8.3489
  29   2.0000      -0.301956        -8.2166
  30   2.0000      -0.269757        -7.3405
  31   2.0000      -0.234101        -6.3702
  32   0.0000      -0.014089        -0.3834
  33   0.0000       0.078604         2.1389
  34   0.0000       0.094172         2.5625
  35   0.0000       0.104569         2.8455
  36   0.0000       0.123480         3.3601

MULLIKEN ATOMIC CHARGES
-----------------------
   0 C :   -0.472957
   1 C :   -0.226840
   2 C :   -0.348488
   3 C :    0.422932
   4 O :   -0.439293
   5 O :   -0.181542
   6 C :   -0.137591
   7 C :   -0.469058
   8 H :    0.150524
   9 H :    0.143177
  10 H :    0.146012
  11 H :    0.165355
  12 H :    0.138976
  13 H :    0.161407
  14 H :    0.161713
  15 H :    0.147265
  16 H :    0.167956
  17 H :    0.172809
  18 H :    0.151216
  19 H :    0.146426
Sum of atomic charges:   -0.0000000

LOEWDIN ATOMIC CHARGES
----------------------
   0 C :   -0.420383
   1 C :   -0.288184
   2 C :   -0.230011
   3 C :    0.358522
   4 O :   -0.437639
   5 O :   -0.595910
   6 C :    0.026813
   7 C :   -0.390261
   8 H :    0.153072
   9 H :    0.150293
  10 H :    0.150996
  11 H :    0.165103
  12 H :    0.155715
  13 H :    0.176357
  14 H :    0.178557
  15 H :    0.177446
  16 H :    0.188101
  17 H :    0.165412
  18 H :    0.156969
  19 H :    0.159031

  Mayer bond orders larger than 0.100000
B(  0-C ,  1-C ) :   0.8917 B(  0-C ,  8-H ) :   0.9728 B(  0-C ,  9-H ) :   0.9818
B(  0-C , 10-H ) :   0.9872 B(  1-C ,  2-C ) :   0.9241 B(  1-C , 11-H ) :   0.9633
B(  1-C , 12-H ) :   0.9571 B(  2-C ,  3-C ) :   0.9594 B(  2-C , 13-H ) :   0.9849
B(  2-C , 14-H ) :   0.9676 B(  3-C ,  4-O ) :   1.8186 B(  3-C ,  5-O ) :   1.0500
B(  5-O ,  6-C ) :   0.8222 B(  6-C ,  7-C ) :   0.9371 B(  6-C , 15-H ) :   0.9610
B(  6-C , 16-H ) :   0.9674 B(  7-C , 17-H ) :   0.9714 B(  7-C , 18-H ) :   0.9733
B(  7-C , 19-H ) :   0.9651

Dispersion correction           -0.004928731
FINAL SINGLE POINT ENERGY      -386.235800476832

DIPOLE MOMENT
-------------

Method             : SCF
Type of density    : Electron Density
Multiplicity       :   1
Irrep              :   0
Energy             :  -386.2425607030774017 Eh
Relativity type    :
Basis              : AO
                                X                 Y                 Z
Electronic contribution:      3.466333718       0.963206125      -1.813241685
Nuclear contribution   :     -3.321798161      -1.445454950       2.348243735
                        -----------------------------------------
Total Dipole Moment    :      0.144535557      -0.482248825       0.535002050
                        -----------------------------------------
Magnitude (a.u.)       :      0.734630281
Magnitude (Debye)      :      1.867281779

Rotational constants in cm-1:             0.202004             0.028726             0.027416
Rotational constants in MHz :          6055.929452           861.193869           821.916075

                             ****ORCA TERMINATED NORMALLY****
TOTAL RUN TIME: 0 days 0 hours 0 minutes 30 seconds 122 msec
