                         Program Version 6.0.0  -   RELEASE  -
|  1> ! r2scan-3c def2/J RI DEFGRID2 scfconv6 printgap
|  2> %output
|  3>     printlevel normal
|  4> end
|  5> %cpcm
|  6>     smd true
|  7>     smdsolvent "water"
|  8> end
|  9> * xyz 0 1
| 10> C -3.6309537698 -0.5013299256 0.3573485786
| 11> C -2.2637197491 -0.4717423516 -0.3130420062
| 12> C -1.2139267919 0.1864980754 0.5918884375
| 13> C 0.102341813 0.2777181512 -0.1332369825
| 14> O 0.3001460802 0.9529931583 -1.122262255
| 15> O 1.0213226384 -0.5028293453 0.4202926061
| 16> C 2.3350791327 -0.5389658685 -0.1634840119
| 17> C 3.2097731552 0.5780621152 0.3846225188
| 18> H -4.3561209833 -0.9820657684 -0.2932270816
| 19> H -3.5842989416 -1.0547156324 1.2916303962
| 20> H -3.9735936289 0.5080064447 0.5698514033
| 21> H -2.317338123 0.0870610488 -1.2495265034
| 22> H -1.9463851681 -1.4898093523 -0.5477256373
| 23> H -1.0765619227 -0.3904146772 1.5052218592
| 24> H -1.5391433968 1.1982466889 0.8380650825
| 25> H 2.7278662581 -1.5198123132 0.1057147993
| 26> H 2.2358496048 -0.4526232124 -1.2497740712
| 27> H 2.8018300992 1.5447622682 0.0977923041
| 28> H 3.2552234682 0.5201362914 1.4687127822
| 29> H 4.2110529022 0.4833902271 -0.0226270614
| 30> *
| 31>
| 32>                          ****END OF INPUT****

CARTESIAN COORDINATES (ANGSTROEM)
---------------------------------
  C     -3.630954   -0.501330    0.357349
  C     -2.263720   -0.471742   -0.313042
  C     -1.213927    0.186498    0.591888
  C      0.102342    0.277718   -0.133237
  O      0.300146    0.952993   -1.122262
  O      1.021323   -0.502829    0.420293
  C      2.335079   -0.538966   -0.163484
  C      3.209773    0.578062    0.384623
  H     -4.356121   -0.982066   -0.293227
  H     -3.584299   -1.054716    1.291630
  H     -3.973594    0.508006    0.569851
  H     -2.317338    0.087061   -1.249527
  H     -1.946385   -1.489809   -0.547726
  H     -1.076562   -0.390415    1.505222
  H     -1.539143    1.198247    0.838065
  H      2.727866   -1.519812    0.105715
  H      2.235850   -0.452623   -1.249774
  H      2.801830    1.544762    0.097792
  H      3.255223    0.520136    1.468713
  H      4.211053    0.483390   -0.022627

 Total Charge           Charge          ....    0
 Multiplicity           Mult            ....    1
 Number of Electrons    NEL             ....   64
 Basis Dimension        Dim             ....  222

ORBITAL ENERGIES
----------------

  NO   OCC          E(Eh)            E(eV)
   0   2.0000     -19.002603      -517.0871
   1   2.0000     -18.942595      -515.4542
   2   2.0000     -10.161682      -276.5134
   3   2.0000     -10.083075      -274.3744
   4   2.0000     -10.034542      -273.0538
   5   2.0000     -10.029179      -272.9078
   6   2.0000     -10.018326      -272.6125
   7   2.0000     -10.011637      -272.4305
   8   2.0000      -1.078518       -29.3480
   9   2.0000      -0.988432       -26.8966
  10   2.0000      -0.768411       -20.9095
  11   2.0000      -0.733229       -19.9522
  12   2.0000      -0.674194       -18.3458
  13   2.0000      -0.617255       -16.7964
  14   2.0000      -0.558420       -15.1954
  15   2.0000      -0.520924       -14.1751
  16   2.0000      -0.472749       -12.8642
  17   2.0000      -0.462248       -12.5784
  18   2.0000      -0.435481       -11.8500
  19   2.0000      -0.426168       -11.5966
  20   2.0000      -0.409530       -11.1439
  21   2.0000      -0.382801       -10.4165
  22   2.0000      -0.372695       -10.1416
  23   2.0000      -0.356509        -9.7011
  24   2.0000      -0.349339        -9.5060
  25   2.0000      -0.336810        -9.1651
  26   2.0000      -0.320267        -8.7149
  27   2.0000      -0.308768        -8.4020
  28   2.0000      -0.301033        -8.1915
  29   2.0000      -0.297528        -8.0962
  30   2.0000      -0.277958        -7.5636
  31   2.0000      -0.250750        -6.8233
  32   0.0000      -0.022850        -0.6218
  33   0.0000       0.080416         2.1882
  34   0.0000       0.101487         2.7616
  35   0.0000       0.113824         3.0973
  36   0.0000       0.131616         3.5815

MULLIKEN ATOMIC CHARGES
-----------------------
   0 C :   -0.517284
   1 C :   -0.222075
   2 C :   -0.369298
   3 C :    0.463389
   4 O :   -0.522306
   5 O :   -0.201384
   6 C :   -0.143010
   7 C :   -0.493905
   8 H :    0.161707
   9 H :    0.158092
  10 H :    0.159340
  11 H :    0.159033
  12 H :    0.155334
  13 H :    0.176920
  14 H :    0.186156
  15 H :    0.173589
  16 H :    0.171746
  17 H :    0.168379
  18 H :    0.165462
  19 H :    0.170116
Sum of atomic charges:    0.0000000

LOEWDIN ATOMIC CHARGES
----------------------
   0 C :   -0.425433
   1 C :   -0.287355
   2 C :   -0.227350
   3 C :    0.367861
   4 O :   -0.497670
   5 O :   -0.598330
   6 C :    0.031583
   7 C :   -0.393043
   8 H :    0.156112
   9 H :    0.154851
  10 H :    0.154609
  11 H :    0.161919
  12 H :    0.160626
  13 H :    0.183928
  14 H :    0.187225
  15 H :    0.188978
  16 H :    0.189363
  17 H :    0.162357
  18 H :    0.161948
  19 H :    0.167817

  Mayer bond orders larger than 0.100000
B(  0-C ,  1-C ) :   0.8870 B(  0-C ,  8-H ) :   0.9695 B(  0-C ,  9-H ) :   0.9796
B(  0-C , 10-H ) :   0.9841 B(  1-C ,  2-C ) :   0.9119 B(  1-C , 11-H ) :   0.9640
B(  1-C , 12-H ) :   0.9556 B(  2-C ,  3-C ) :   0.9599 B(  2-C , 13-H ) :   0.9770
B(  2-C , 14-H ) :   0.9593 B(  3-C ,  4-O ) :   1.7519 B(  3-C ,  5-O ) :   1.0733
B(  5-O ,  6-C ) :   0.8034 B(  6-C ,  7-C ) :   0.9357 B(  6-C , 15-H ) :   0.9516
B(  6-C , 16-H ) :   0.9634 B(  7-C , 17-H ) :   0.9692 B(  7-C , 18-H ) :   0.9694
B(  7-C , 19-H ) :   0.9600

Dispersion correction           -0.004928731
FINAL SINGLE POINT ENERGY      -386.240713247651

DIPOLE MOMENT
-------------

Method             : SCF
Type of density    : Electron Density
Multiplicity       :   1
Irrep              :   0
Energy             :  -386.2474734738966617 Eh
Relativity type    :
Basis              : AO
                                X                 Y                 Z
Electronic contribution:      3.513945367       0.731755245      -1.539240880
Nuclear contribution   :     -3.321798161      -1.445454950       2.348243735
                        -----------------------------------------
Total Dipole Moment    :      0.192147205      -0.713699706       0.809002855
                        -----------------------------------------
Magnitude (a.u.)       :      1.095798082
Magnitude (Debye)      :      2.785297374

Rotational constants in cm-1:             0.202004             0.028726             0.027416
Rotational constants in MHz :          6055.929452           861.193869           821.916075

                             ****ORCA TERMINATED NORMALLY****
TOTAL RUN TIME: 0 days 0 hours 0 minutes 36 seconds 244 msec
