                         Program Version 6.0.0  -   RELEASE  -
|  1> ! r2scan-3c def2/J RI DEFGRID2 scfconv6 printgap
|  2> %output
|  3>     printlevel normal
|  4> end
|  5> * xyz 0 1
|  6> C 2.2251897493 1.0088297684 -0.6563946125
|  7> C 1.1785844675 0.3480607259 0.2406505712
|  8> C 1.7788631296 -0.8891880218 0.925185866
|  9> N 0.0043815076 0.072067146 -0.5728543939
| 10> C -1.2012218036 -0.3966189016 0.0989262752
| 11> C -2.2043240125 -0.819766877 -0.9733173449
| 12> C -1.7969158296 0.7194898854 0.9579109483
| 13> H 1.7903507301 1.8669773332 -1.1598135016
| 14> H 3.0761480912 1.3373055412 -0.066347298
| 15> H 2.5737629028 0.3053696605 -1.4093832067
| 16> H 0.8790590729 1.0666518393 1.0107857524
| 17> H 2.0503757676 -1.6361735119 0.1808759354
| 18> H 1.0705669518 -1.3335139711 1.6208721795
| 19> H 2.6710627223 -0.611498284 1.4796351558
| 20> H 0.2599800884 -0.5913198758 -1.2983863116
| 21> H -1.0036688309 -1.2708133798 0.7499312104
| 22> H -1.806771803 -1.6376502788 -1.5705209103
| 23> H -3.1319179195 -1.1487890386 -0.5131130769
| 24> H -2.4128706242 0.0203722045 -1.6298210878
| 25> H -2.7747088589 0.4203719131 1.3254149072
| 26> H -1.9014049651 1.6206874372 0.3604832559
| 27> H -1.1646094257 0.9384052666 1.8140557337
| 28> *
| 29>
| 30>                          ****END OF INPUT****

CARTESIAN COORDINATES (ANGSTROEM)
---------------------------------
  C      2.225190    1.008830   -0.656395
  C      1.178584    0.348061    0.240651
  C      1.778863   -0.889188    0.925186
  N      0.004382    0.072067   -0.572854
  C     -1.201222   -0.396619    0.098926
  C     -2.204324   -0.819767   -0.973317
  C     -1.796916    0.719490    0.957911
  H      1.790351    1.866977   -1.159814
  H      3.076148    1.337306   -0.066347
  H      2.573763    0.305370   -1.409383
  H      0.879059    1.066652    1.010786
  H      2.050376   -1.636174    0.180876
  H      1.070567   -1.333514    1.620872
  H      2.671063   -0.611498    1.479635
  H      0.259980   -0.591320   -1.298386
  H     -1.003669   -1.270813    0.749931
  H     -1.806772   -1.637650   -1.570521
  H     -3.131918   -1.148789   -0.513113
  H     -2.412871    0.020372   -1.629821
  H     -2.774709    0.420372    1.325415
  H     -1.901405    1.620687    0.360483
  H     -1.164609    0.938405    1.814056

 Total Charge           Charge          ....    0
 Multiplicity           Mult            ....    1
 Number of Electrons    NEL             ....   58
 Basis Dimension        Dim             ....  213

ORBITAL ENERGIES
----------------

  NO   OCC          E(Eh)            E(eV)
   0   2.0000     -14.133130      -384.5820
   1   2.0000     -10.055225      -273.6166
   2   2.0000     -10.054388      -273.5938
   3   2.0000     -10.014711      -272.5142
   4   2.0000     -10.013496      -272.4811
   5   2.0000     -10.011767      -272.4340
   6   2.0000     -10.011039      -272.4142
   7   2.0000      -0.871343       -23.7105
   8   2.0000      -0.751930       -20.4611
   9   2.0000      -0.693030       -18.8583
  10   2.0000      -0.650817       -17.7096
  11   2.0000      -0.648840       -17.6558
  12   2.0000      -0.555482       -15.1154
  13   2.0000      -0.529825       -14.4173
  14   2.0000      -0.457372       -12.4457
  15   2.0000      -0.427563       -11.6346
  16   2.0000      -0.418303       -11.3826
  17   2.0000      -0.398555       -10.8452
  18   2.0000      -0.374110       -10.1800
  19   2.0000      -0.368983       -10.0405
  20   2.0000      -0.355115        -9.6632
  21   2.0000      -0.352145        -9.5823
  22   2.0000      -0.340721        -9.2715
  23   2.0000      -0.321906        -8.7595
  24   2.0000      -0.314762        -8.5651
  25   2.0000      -0.303662        -8.2631
  26   2.0000      -0.297258        -8.0888
  27   2.0000      -0.290479        -7.9043
  28   2.0000      -0.185351        -5.0437
  29   0.0000       0.075916         2.0658
  30   0.0000       0.105069         2.8591
  31   0.0000       0.112607         3.0642
  32   0.0000       0.122912         3.3446
  33   0.0000       0.130276         3.5450

MULLIKEN ATOMIC CHARGES
-----------------------
   0 C :   -0.476393
   1 C :   -0.063888
   2 C :   -0.457085
   3 N :   -0.283707
   4 C :    0.021955
   5 C :   -0.495182
   6 C :   -0.492665
   7 H :    0.163007
   8 H :    0.142367
   9 H :    0.139048
  10 H :    0.135969
  11 H :    0.142755
  12 H :    0.147353
  13 H :    0.146411
  14 H :    0.213028
  15 H :    0.122240
  16 H :    0.135988
  17 H :    0.144679
  18 H :    0.162745
  19 H :    0.143521
  20 H :    0.165492
  21 H :    0.142364
Sum of atomic charges:    0.0000000

LOEWDIN ATOMIC CHARGES
----------------------
   0 C :   -0.385192
   1 C :   -0.020181
   2 C :   -0.405338
   3 N :   -0.844262
   4 C :   -0.014701
   5 C :   -0.385650
   6 C :   -0.390898
   7 H :    0.162597
   8 H :    0.152635
   9 H :    0.152116
  10 H :    0.176385
  11 H :    0.153504
  12 H :    0.152637
  13 H :    0.154591
  14 H :    0.251902
  15 H :    0.153442
  16 H :    0.151225
  17 H :    0.154749
  18 H :    0.161864
  19 H :    0.154229
  20 H :    0.162864
  21 H :    0.151484

  Mayer bond orders larger than 0.100000
B(  0-C ,  1-C ) :   0.9595 B(  0-C ,  7-H ) :   0.9744 B(  0-C ,  8-H ) :   0.9791
B(  0-C ,  9-H ) :   0.9745 B(  1-C ,  2-C ) :   0.8774 B(  1-C ,  3-N ) :   0.9306
B(  1-C , 10-H ) :   0.9532 B(  2-C , 11-H ) :   0.9753 B(  2-C , 12-H ) :   0.9723
B(  2-C , 13-H ) :   0.9741 B(  3-N ,  4-C ) :   0.8576 B(  3-N , 14-H ) :   0.9199
B(  4-C ,  5-C ) :   0.9338 B(  4-C ,  6-C ) :   0.9106 B(  4-C , 15-H ) :   0.9135
B(  5-C , 16-H ) :   0.9724 B(  5-C , 17-H ) :   0.9780 B(  5-C , 18-H ) :   0.9832
B(  6-C , 19-H ) :   0.9784 B(  6-C , 20-H ) :   0.9820 B(  6-C , 21-H ) :   0.9682

Dispersion correction           -0.005965050
FINAL SINGLE POINT ENERGY      -292.319784825903

DIPOLE MOMENT
-------------

Method             : SCF
Type of density    : Electron Density
Multiplicity       :   1
Irrep              :   0
Energy             :  -292.3282308394365145 Eh
Relativity type    :
Basis              : AO
                                X                 Y                 Z
Electronic contribution:     -0.084196480       0.334848157      -0.716532124
Nuclear contribution   :      0.164534398      -0.612805256       0.836214061
                        -----------------------------------------
Total Dipole Moment    :      0.080337919      -0.277957099       0.119681937
                        -----------------------------------------
Magnitude (a.u.)       :      0.313110358
Magnitude (Debye)      :      0.795863281

Rotational constants in cm-1:             0.138464             0.047430             0.046361
Rotational constants in MHz :          4151.053015          1421.917376          1389.878334

                             ****ORCA TERMINATED NORMALLY****
TOTAL RUN TIME: 0 days 0 hours 0 minutes 25 seconds 589 msec
