                         Program Version 6.0.0  -   RELEASE  -
|  1> ! r2scan-3c def2/J RI DEFGRID2 scfconv6 printgap
|  2> %output
|  3>     printlevel normal
|  4> end
|  5> %cpcm
|  6>     smd true
|  7>     smdsolvent "water"
|  8> end
|  9> * xyz 0 1
| 10> C 2.2251897493 1.0088297684 -0.6563946125
| 11> C 1.1785844675 0.3480607259 0.2406505712
| 12> C 1.7788631296 -0.8891880218 0.925185866
| 13> N 0.0043815076 0.072067146 -0.5728543939
| 14> C -1.2012218036 -0.3966189016 0.0989262752
| 15> C -2.2043240125 -0.819766877 -0.9733173449
| 16> C -1.7969158296 0.7194898854 0.9579109483
| 17> H 1.7903507301 1.8669773332 -1.1598135016
| 18> H 3.0761480912 1.3373055412 -0.066347298
| 19> H 2.5737629028 0.3053696605 -1.4093832067
| 20> H 0.8790590729 1.0666518393 1.0107857524
| 21> H 2.0503757676 -1.6361735119 0.1808759354
| 22> H 1.0705669518 -1.3335139711 1.6208721795
| 23> H 2.6710627223 -0.611498284 1.4796351558
| 24> H 0.2599800884 -0.5913198758 -1.2983863116
| 25> H -1.0036688309 -1.2708133798 0.7499312104
| 26> H -1.806771803 -1.6376502788 -1.5705209103
| 27> H -3.1319179195 -1.1487890386 -0.5131130769
| 28> H -2.4128706242 0.0203722045 -1.6298210878
| 29> H -2.7747088589 0.4203719131 1.3254149072
| 30> H -1.9014049651 1.6206874372 0.3604832559
| 31> H -1.1646094257 0.9384052666 1.8140557337
| 32> *
| 33>
| 34>                          ****END OF INPUT****

CARTESIAN COORDINATES (ANGSTROEM)
---------------------------------
  C      2.225190    1.008830   -0.656395
  C      1.178584    0.348061    0.240651
  C      1.778863   -0.889188    0.925186
  N      0.004382    0.072067   -0.572854
  C     -1.201222   -0.396619    0.098926
  C     -2.204324   -0.819767   -0.973317
  C     -1.796916    0.719490    0.957911
  H      1.790351    1.866977   -1.159814
  H      3.076148    1.337306   -0.066347
  H      2.573763    0.305370   -1.409383
  H      0.879059    1.066652    1.010786
  H      2.050376   -1.636174    0.180876
  H      1.070567   -1.333514    1.620872
  H      2.671063   -0.611498    1.479635
  H      0.259980   -0.591320   -1.298386
  H     -1.003669   -1.270813    0.749931
  H     -1.806772   -1.637650   -1.570521
  H     -3.131918   -1.148789   -0.513113
  H     -2.412871    0.020372   -1.629821
  H     -2.774709    0.420372    1.325415
  H     -1.901405    1.620687    0.360483
  H     -1.164609    0.938405    1.814056

 Total Charge           Charge          ....    0
 Multiplicity           Mult            ....    1
 Number of Electrons    NEL             ....   58
 Basis Dimension        Dim             ....  213

ORBITAL ENERGIES
----------------

  NO   OCC          E(Eh)            E(eV)
   0   2.0000     -14.129913      -384.4945
   1   2.0000     -10.049291      -273.4551
   2   2.0000     -10.047818      -273.4150
   3   2.0000     -10.007630      -272.3215
   4   2.0000     -10.006014      -272.2775
   5   2.0000     -10.005415      -272.2612
   6   2.0000     -10.004516      -272.2367
   7   2.0000      -0.866610       -23.5816
   8   2.0000      -0.745869       -20.2961
   9   2.0000      -0.686923       -18.6921
  10   2.0000      -0.645020       -17.5519
  11   2.0000      -0.642300       -17.4779
  12   2.0000      -0.549599       -14.9554
  13   2.0000      -0.523603       -14.2480
  14   2.0000      -0.451961       -12.2985
  15   2.0000      -0.421440       -11.4680
  16   2.0000      -0.411642       -11.2014
  17   2.0000      -0.392499       -10.6804
  18   2.0000      -0.367215        -9.9924
  19   2.0000      -0.362094        -9.8531
  20   2.0000      -0.349386        -9.5073
  21   2.0000      -0.344981        -9.3874
  22   2.0000      -0.334360        -9.0984
  23   2.0000      -0.315608        -8.5881
  24   2.0000      -0.309003        -8.4084
  25   2.0000      -0.297584        -8.0977
  26   2.0000      -0.290785        -7.9127
  27   2.0000      -0.283445        -7.7129
  28   2.0000      -0.185060        -5.0357
  29   0.0000       0.086035         2.3411
  30   0.0000       0.115561         3.1446
  31   0.0000       0.120706         3.2846
  32   0.0000       0.128962         3.5092
  33   0.0000       0.135732         3.6934

MULLIKEN ATOMIC CHARGES
-----------------------
   0 C :   -0.523426
   1 C :   -0.032072
   2 C :   -0.514489
   3 N :   -0.356700
   4 C :    0.032754
   5 C :   -0.531364
   6 C :   -0.536665
   7 H :    0.158779
   8 H :    0.158763
   9 H :    0.159649
  10 H :    0.149496
  11 H :    0.159328
  12 H :    0.158845
  13 H :    0.159135
  14 H :    0.263129
  15 H :    0.132273
  16 H :    0.156733
  17 H :    0.160478
  18 H :    0.161215
  19 H :    0.160107
  20 H :    0.163634
  21 H :    0.160397
Sum of atomic charges:    0.0000000

LOEWDIN ATOMIC CHARGES
----------------------
   0 C :   -0.394936
   1 C :   -0.018821
   2 C :   -0.411890
   3 N :   -0.863198
   4 C :   -0.013863
   5 C :   -0.393725
   6 C :   -0.400027
   7 H :    0.158842
   8 H :    0.157469
   9 H :    0.157602
  10 H :    0.179585
  11 H :    0.157872
  12 H :    0.155686
  13 H :    0.157805
  14 H :    0.261731
  15 H :    0.158348
  16 H :    0.157403
  17 H :    0.159216
  18 H :    0.159589
  19 H :    0.158823
  20 H :    0.160118
  21 H :    0.156372

  Mayer bond orders larger than 0.100000
B(  0-C ,  1-C ) :   0.9358 B(  0-C ,  7-H ) :   0.9744 B(  0-C ,  8-H ) :   0.9754
B(  0-C ,  9-H ) :   0.9744 B(  1-C ,  2-C ) :   0.8700 B(  1-C ,  3-N ) :   0.9375
B(  1-C , 10-H ) :   0.9534 B(  2-C , 11-H ) :   0.9758 B(  2-C , 12-H ) :   0.9690
B(  2-C , 13-H ) :   0.9717 B(  3-N ,  4-C ) :   0.8656 B(  3-N , 14-H ) :   0.9051
B(  4-C ,  5-C ) :   0.9294 B(  4-C ,  6-C ) :   0.9026 B(  4-C , 15-H ) :   0.9169
B(  5-C , 16-H ) :   0.9690 B(  5-C , 17-H ) :   0.9750 B(  5-C , 18-H ) :   0.9806
B(  6-C , 19-H ) :   0.9753 B(  6-C , 20-H ) :   0.9808 B(  6-C , 21-H ) :   0.9652

Dispersion correction           -0.005965050
FINAL SINGLE POINT ENERGY      -292.322065175114

DIPOLE MOMENT
-------------

Method             : SCF
Type of density    : Electron Density
Multiplicity       :   1
Irrep              :   0
Energy             :  -292.3305111886479040 Eh
Relativity type    :
Basis              : AO
                                X                 Y                 Z
Electronic contribution:     -0.023414268       0.126904685      -0.621735094
Nuclear contribution   :      0.164534398      -0.612805256       0.836214061
                        -----------------------------------------
Total Dipole Moment    :      0.141120131      -0.485900571       0.214478968
                        -----------------------------------------
Magnitude (a.u.)       :      0.549559354
Magnitude (Debye)      :      1.396868868

Rotational constants in cm-1:             0.138464             0.047430             0.046361
Rotational constants in MHz :          4151.053015          1421.917376          1389.878334

                             ****ORCA TERMINATED NORMALLY****
TOTAL RUN TIME: 0 days 0 hours 0 minutes 29 seconds 976 msec
