                         Program Version 6.0.0  -   RELEASE  -
|  1> ! r2scan-3c def2/J RI DEFGRID2 scfconv6 printgap
|  2> %output
|  3>     printlevel normal
|  4> end
|  5> * xyz 0 1
|  6> C -2.8303247843 -1.1062265154 -0.1168616604
|  7> C -2.5178084868 0.3845037851 -0.0637993202
|  8> C -1.2195035918 0.6626304964 0.6930226772
|  9> C -0.0063267259 0.1815861352 -0.061697768
| 10> O 0.0931430067 0.1266418713 -1.2689472997
| 11> O 0.9672237224 -0.1714721264 0.7723250219
| 12> C 2.2220937005 -0.5994397057 0.2170189935
| 13> C 3.1159939087 0.5878569175 -0.1067921827
| 14> H -2.9205017209 -1.5153219271 0.8867191562
| 15> H -3.7631766137 -1.2791970655 -0.6465831801
| 16> H -2.0375718551 -1.6387249745 -0.6385371796
| 17> H -3.3347761722 0.9124640494 0.4285895869
| 18> H -2.4195745264 0.7707601007 -1.0798997625
| 19> H -1.220968832 0.1940704096 1.6770476342
| 20> H -1.0929287285 1.739288167 0.8294642473
| 21> H 2.6623108336 -1.2290528204 0.990628869
| 22> H 2.0222793116 -1.1873062181 -0.6841198374
| 23> H 4.0783530379 0.2286014266 -0.4563412453
| 24> H 2.6612497061 1.1943734973 -0.8869333197
| 25> H 3.2608060519 1.1999687653 0.7792901641
| 26> *
| 27>
| 28>                          ****END OF INPUT****

CARTESIAN COORDINATES (ANGSTROEM)
---------------------------------
  C     -2.830325   -1.106227   -0.116862
  C     -2.517808    0.384504   -0.063799
  C     -1.219504    0.662630    0.693023
  C     -0.006327    0.181586   -0.061698
  O      0.093143    0.126642   -1.268947
  O      0.967224   -0.171472    0.772325
  C      2.222094   -0.599440    0.217019
  C      3.115994    0.587857   -0.106792
  H     -2.920502   -1.515322    0.886719
  H     -3.763177   -1.279197   -0.646583
  H     -2.037572   -1.638725   -0.638537
  H     -3.334776    0.912464    0.428590
  H     -2.419575    0.770760   -1.079900
  H     -1.220969    0.194070    1.677048
  H     -1.092929    1.739288    0.829464
  H      2.662311   -1.229053    0.990629
  H      2.022279   -1.187306   -0.684120
  H      4.078353    0.228601   -0.456341
  H      2.661250    1.194373   -0.886933
  H      3.260806    1.199969    0.779290

 Total Charge           Charge          ....    0
 Multiplicity           Mult            ....    1
 Number of Electrons    NEL             ....   64
 Basis Dimension        Dim             ....  222

ORBITAL ENERGIES
----------------

  NO   OCC          E(Eh)            E(eV)
   0   2.0000     -18.995729      -516.9001
   1   2.0000     -18.929070      -515.0862
   2   2.0000     -10.152230      -276.2562
   3   2.0000     -10.090707      -274.5821
   4   2.0000     -10.041175      -273.2343
   5   2.0000     -10.029916      -272.9279
   6   2.0000     -10.028273      -272.8832
   7   2.0000     -10.015638      -272.5394
   8   2.0000      -1.070613       -29.1329
   9   2.0000      -0.976363       -26.5682
  10   2.0000      -0.771088       -20.9824
  11   2.0000      -0.738804       -20.1039
  12   2.0000      -0.677394       -18.4328
  13   2.0000      -0.623371       -16.9628
  14   2.0000      -0.563920       -15.3450
  15   2.0000      -0.517206       -14.0739
  16   2.0000      -0.473969       -12.8974
  17   2.0000      -0.455799       -12.4029
  18   2.0000      -0.441840       -12.0231
  19   2.0000      -0.419612       -11.4182
  20   2.0000      -0.408713       -11.1216
  21   2.0000      -0.388262       -10.5651
  22   2.0000      -0.378939       -10.3114
  23   2.0000      -0.363925        -9.9029
  24   2.0000      -0.349042        -9.4979
  25   2.0000      -0.342494        -9.3197
  26   2.0000      -0.314670        -8.5626
  27   2.0000      -0.309349        -8.4178
  28   2.0000      -0.306639        -8.3441
  29   2.0000      -0.303100        -8.2478
  30   2.0000      -0.271508        -7.3881
  31   2.0000      -0.237317        -6.4577
  32   0.0000      -0.014518        -0.3950
  33   0.0000       0.075145         2.0448
  34   0.0000       0.091255         2.4832
  35   0.0000       0.108772         2.9598
  36   0.0000       0.121299         3.3007

MULLIKEN ATOMIC CHARGES
-----------------------
   0 C :   -0.503181
   1 C :   -0.194658
   2 C :   -0.302072
   3 C :    0.347857
   4 O :   -0.433565
   5 O :   -0.173647
   6 C :   -0.135168
   7 C :   -0.473007
   8 H :    0.141196
   9 H :    0.147160
  10 H :    0.162925
  11 H :    0.140728
  12 H :    0.155323
  13 H :    0.166647
  14 H :    0.167015
  15 H :    0.147921
  16 H :    0.166250
  17 H :    0.146861
  18 H :    0.173730
  19 H :    0.151684
Sum of atomic charges:   -0.0000000

LOEWDIN ATOMIC CHARGES
----------------------
   0 C :   -0.417469
   1 C :   -0.298528
   2 C :   -0.232846
   3 C :    0.359239
   4 O :   -0.441411
   5 O :   -0.595975
   6 C :    0.026526
   7 C :   -0.390937
   8 H :    0.148538
   9 H :    0.152624
  10 H :    0.158751
  11 H :    0.152344
  12 H :    0.169301
  13 H :    0.179502
  14 H :    0.183506
  15 H :    0.177786
  16 H :    0.187371
  17 H :    0.159071
  18 H :    0.165617
  19 H :    0.156989

  Mayer bond orders larger than 0.100000
B(  0-C ,  1-C ) :   0.9079 B(  0-C ,  8-H ) :   0.9822 B(  0-C ,  9-H ) :   0.9695
B(  0-C , 10-H ) :   0.9758 B(  1-C ,  2-C ) :   0.9072 B(  1-C , 11-H ) :   0.9636
B(  1-C , 12-H ) :   0.9607 B(  2-C ,  3-C ) :   0.9583 B(  2-C , 13-H ) :   0.9951
B(  2-C , 14-H ) :   0.9184 B(  3-C ,  4-O ) :   1.8414 B(  3-C ,  5-O ) :   1.0603
B(  5-O ,  6-C ) :   0.8199 B(  6-C ,  7-C ) :   0.9358 B(  6-C , 15-H ) :   0.9615
B(  6-C , 16-H ) :   0.9678 B(  7-C , 17-H ) :   0.9649 B(  7-C , 18-H ) :   0.9718
B(  7-C , 19-H ) :   0.9735

Dispersion correction           -0.005088540
FINAL SINGLE POINT ENERGY      -386.237246373311

DIPOLE MOMENT
-------------

Method             : SCF
Type of density    : Electron Density
Multiplicity       :   1
Irrep              :   0
Energy             :  -386.2439177591166981 Eh
Relativity type    :
Basis              : AO
                                X                 Y                 Z
Electronic contribution:      2.205512575       0.587777541      -0.468964598
Nuclear contribution   :     -1.958648061      -0.573018291       1.117802903
                        -----------------------------------------
Total Dipole Moment    :      0.246864514       0.014759250       0.648838304
                        -----------------------------------------
Magnitude (a.u.)       :      0.694370988
Magnitude (Debye)      :      1.764950788

Rotational constants in cm-1:             0.171769             0.032263             0.031959
Rotational constants in MHz :          5149.498817           967.228992           958.093256

                             ****ORCA TERMINATED NORMALLY****
TOTAL RUN TIME: 0 days 0 hours 0 minutes 33 seconds 536 msec
