                         Program Version 6.0.0  -   RELEASE  -
|  1> ! r2scan-3c def2/J RI DEFGRID2 scfconv6 printgap
|  2> %output
|  3>     printlevel normal
|  4> end
|  5> %cpcm
|  6>     smd true
|  7>     smdsolvent "water"
|  8> end
|  9> * xyz 0 1
| 10> C -2.8303247843 -1.1062265154 -0.1168616604
| 11> C -2.5178084868 0.3845037851 -0.0637993202
| 12> C -1.2195035918 0.6626304964 0.6930226772
| 13> C -0.0063267259 0.1815861352 -0.061697768
| 14> O 0.0931430067 0.1266418713 -1.2689472997
| 15> O 0.9672237224 -0.1714721264 0.7723250219
| 16> C 2.2220937005 -0.5994397057 0.2170189935
| 17> C 3.1159939087 0.5878569175 -0.1067921827
| 18> H -2.9205017209 -1.5153219271 0.8867191562
| 19> H -3.7631766137 -1.2791970655 -0.6465831801
| 20> H -2.0375718551 -1.6387249745 -0.6385371796
| 21> H -3.3347761722 0.9124640494 0.4285895869
| 22> H -2.4195745264 0.7707601007 -1.0798997625
| 23> H -1.220968832 0.1940704096 1.6770476342
| 24> H -1.0929287285 1.739288167 0.8294642473
| 25> H 2.6623108336 -1.2290528204 0.990628869
| 26> H 2.0222793116 -1.1873062181 -0.6841198374
| 27> H 4.0783530379 0.2286014266 -0.4563412453
| 28> H 2.6612497061 1.1943734973 -0.8869333197
| 29> H 3.2608060519 1.1999687653 0.7792901641
| 30> *
| 31>
| 32>                          ****END OF INPUT****

CARTESIAN COORDINATES (ANGSTROEM)
---------------------------------
  C     -2.830325   -1.106227   -0.116862
  C     -2.517808    0.384504   -0.063799
  C     -1.219504    0.662630    0.693023
  C     -0.006327    0.181586   -0.061698
  O      0.093143    0.126642   -1.268947
  O      0.967224   -0.171472    0.772325
  C      2.222094   -0.599440    0.217019
  C      3.115994    0.587857   -0.106792
  H     -2.920502   -1.515322    0.886719
  H     -3.763177   -1.279197   -0.646583
  H     -2.037572   -1.638725   -0.638537
  H     -3.334776    0.912464    0.428590
  H     -2.419575    0.770760   -1.079900
  H     -1.220969    0.194070    1.677048
  H     -1.092929    1.739288    0.829464
  H      2.662311   -1.229053    0.990629
  H      2.022279   -1.187306   -0.684120
  H      4.078353    0.228601   -0.456341
  H      2.661250    1.194373   -0.886933
  H      3.260806    1.199969    0.779290

 Total Charge           Charge          ....    0
 Multiplicity           Mult            ....    1
 Number of Electrons    NEL             ....   64
 Basis Dimension        Dim             ....  222

ORBITAL ENERGIES
----------------

  NO   OCC          E(Eh)            E(eV)
   0   2.0000     -19.001358      -517.0532
   1   2.0000     -18.943770      -515.4862
   2   2.0000     -10.162228      -276.5283
   3   2.0000     -10.082931      -274.3705
   4   2.0000     -10.035353      -273.0758
   5   2.0000     -10.025289      -272.8020
   6   2.0000     -10.018047      -272.6049
   7   2.0000     -10.010323      -272.3947
   8   2.0000      -1.077796       -29.3283
   9   2.0000      -0.988989       -26.9118
  10   2.0000      -0.767551       -20.8861
  11   2.0000      -0.732766       -19.9396
  12   2.0000      -0.672817       -18.3083
  13   2.0000      -0.618670       -16.8349
  14   2.0000      -0.558891       -15.2082
  15   2.0000      -0.516112       -14.0441
  16   2.0000      -0.474443       -12.9102
  17   2.0000      -0.460295       -12.5253
  18   2.0000      -0.444487       -12.0951
  19   2.0000      -0.421462       -11.4686
  20   2.0000      -0.404339       -11.0026
  21   2.0000      -0.384773       -10.4702
  22   2.0000      -0.373127       -10.1533
  23   2.0000      -0.359128        -9.7724
  24   2.0000      -0.348421        -9.4810
  25   2.0000      -0.339421        -9.2361
  26   2.0000      -0.309379        -8.4186
  27   2.0000      -0.305642        -8.3169
  28   2.0000      -0.302086        -8.2202
  29   2.0000      -0.301383        -8.2011
  30   2.0000      -0.277959        -7.5637
  31   2.0000      -0.252284        -6.8650
  32   0.0000      -0.021929        -0.5967
  33   0.0000       0.077498         2.1088
  34   0.0000       0.097629         2.6566
  35   0.0000       0.118540         3.2256
  36   0.0000       0.128989         3.5100

MULLIKEN ATOMIC CHARGES
-----------------------
   0 C :   -0.530814
   1 C :   -0.217218
   2 C :   -0.310754
   3 C :    0.385813
   4 O :   -0.512905
   5 O :   -0.196244
   6 C :   -0.141673
   7 C :   -0.497786
   8 H :    0.158436
   9 H :    0.159989
  10 H :    0.160961
  11 H :    0.160103
  12 H :    0.149099
  13 H :    0.183573
  14 H :    0.199724
  15 H :    0.173592
  16 H :    0.171173
  17 H :    0.170181
  18 H :    0.169133
  19 H :    0.165618
Sum of atomic charges:   -0.0000000

LOEWDIN ATOMIC CHARGES
----------------------
   0 C :   -0.424392
   1 C :   -0.298867
   2 C :   -0.229535
   3 C :    0.369641
   4 O :   -0.498187
   5 O :   -0.600259
   6 C :    0.030905
   7 C :   -0.393812
   8 H :    0.154820
   9 H :    0.155453
  10 H :    0.156377
  11 H :    0.159967
  12 H :    0.164480
  13 H :    0.187612
  14 H :    0.195747
  15 H :    0.188941
  16 H :    0.189019
  17 H :    0.167627
  18 H :    0.162577
  19 H :    0.161888

  Mayer bond orders larger than 0.100000
B(  0-C ,  1-C ) :   0.9079 B(  0-C ,  8-H ) :   0.9776 B(  0-C ,  9-H ) :   0.9676
B(  0-C , 10-H ) :   0.9741 B(  1-C ,  2-C ) :   0.8896 B(  1-C , 11-H ) :   0.9591
B(  1-C , 12-H ) :   0.9683 B(  2-C ,  3-C ) :   0.9630 B(  2-C , 13-H ) :   0.9835
B(  2-C , 14-H ) :   0.9099 B(  3-C ,  4-O ) :   1.7784 B(  3-C ,  5-O ) :   1.0808
B(  5-O ,  6-C ) :   0.8018 B(  6-C ,  7-C ) :   0.9347 B(  6-C , 15-H ) :   0.9522
B(  6-C , 16-H ) :   0.9639 B(  7-C , 17-H ) :   0.9600 B(  7-C , 18-H ) :   0.9697
B(  7-C , 19-H ) :   0.9695

Dispersion correction           -0.005088540
FINAL SINGLE POINT ENERGY      -386.241829188317

DIPOLE MOMENT
-------------

Method             : SCF
Type of density    : Electron Density
Multiplicity       :   1
Irrep              :   0
Energy             :  -386.2485005741221471 Eh
Relativity type    :
Basis              : AO
                                X                 Y                 Z
Electronic contribution:      2.267238759       0.594842788      -0.095875402
Nuclear contribution   :     -1.958648061      -0.573018291       1.117802903
                        -----------------------------------------
Total Dipole Moment    :      0.308590698       0.021824497       1.021927501
                        -----------------------------------------
Magnitude (a.u.)       :      1.067726718
Magnitude (Debye)      :      2.713945637

Rotational constants in cm-1:             0.171769             0.032263             0.031959
Rotational constants in MHz :          5149.498817           967.228992           958.093256

                             ****ORCA TERMINATED NORMALLY****
TOTAL RUN TIME: 0 days 0 hours 0 minutes 38 seconds 804 msec
