                         Program Version 6.0.0  -   RELEASE  -
|  1> ! pbe def2-sv(p) def2/J RI DEFGRID1 loosescf d4 GCP(DFT/SV(P)) printgap
|  2> %output
|  3>     printlevel normal
|  4> end
|  5> * xyz 0 1
|  6> C 3.1229033678 -0.8714777555 0.35514709
|  7> C 2.6709940053 0.4032040799 -0.3487972199
|  8> C 1.3324710609 0.9346598828 0.1660166381
|  9> C 0.1586430414 0.0139517102 -0.1734523137
| 10> C -1.1518343138 0.6422636158 0.264578023
| 11> Cl -2.5376173808 -0.4391738199 -0.1206677024
| 12> H 2.4474076721 -1.6960509068 0.1445782592
| 13> H 3.1581515547 -0.7189994769 1.4313943969
| 14> H 4.1165301596 -1.1548922314 0.0166764747
| 15> H 3.4282692518 1.1752543764 -0.1977104674
| 16> H 2.5970459525 0.2181752112 -1.4222553102
| 17> H 1.1500356427 1.9149484425 -0.2788297098
| 18> H 1.3889456482 1.0651123531 1.248227365
| 19> H 0.2785066374 -0.946719341 0.3276221695
| 20> H 0.1337312893 -0.1657375438 -1.2497465543
| 21> H -1.1812492378 0.800623456 1.3412304747
| 22> H -1.3445815209 1.5783942252 -0.2566856334
| 23> *
| 24>
| 25>                          ****END OF INPUT****

CARTESIAN COORDINATES (ANGSTROEM)
---------------------------------
  C      3.122903   -0.871478    0.355147
  C      2.670994    0.403204   -0.348797
  C      1.332471    0.934660    0.166017
  C      0.158643    0.013952   -0.173452
  C     -1.151834    0.642264    0.264578
  Cl    -2.537617   -0.439174   -0.120668
  H      2.447408   -1.696051    0.144578
  H      3.158152   -0.718999    1.431394
  H      4.116530   -1.154892    0.016676
  H      3.428269    1.175254   -0.197710
  H      2.597046    0.218175   -1.422255
  H      1.150036    1.914948   -0.278830
  H      1.388946    1.065112    1.248227
  H      0.278507   -0.946719    0.327622
  H      0.133731   -0.165738   -1.249747
  H     -1.181249    0.800623    1.341230
  H     -1.344582    1.578394   -0.256686

 Total Charge           Charge          ....    0
 Multiplicity           Mult            ....    1
 Number of Electrons    NEL             ....   58
 Basis Dimension        Dim             ....  110

ORBITAL ENERGIES
----------------

  NO   OCC          E(Eh)            E(eV)
   0   2.0000    -100.612567     -2737.8071
   1   2.0000      -9.938512      -270.4407
   2   2.0000      -9.893915      -269.2271
   3   2.0000      -9.891831      -269.1704
   4   2.0000      -9.888953      -269.0921
   5   2.0000      -9.876632      -268.7568
   6   2.0000      -9.148377      -248.9400
   7   2.0000      -6.979948      -189.9340
   8   2.0000      -6.968079      -189.6111
   9   2.0000      -6.967945      -189.6074
  10   2.0000      -0.773173       -21.0391
  11   2.0000      -0.724914       -19.7259
  12   2.0000      -0.666634       -18.1400
  13   2.0000      -0.599014       -16.3000
  14   2.0000      -0.545845       -14.8532
  15   2.0000      -0.513487       -13.9727
  16   2.0000      -0.441365       -12.0102
  17   2.0000      -0.413822       -11.2607
  18   2.0000      -0.401613       -10.9284
  19   2.0000      -0.380995       -10.3674
  20   2.0000      -0.363289        -9.8856
  21   2.0000      -0.348828        -9.4921
  22   2.0000      -0.334208        -9.0943
  23   2.0000      -0.316818        -8.6210
  24   2.0000      -0.294558        -8.0153
  25   2.0000      -0.293753        -7.9934
  26   2.0000      -0.286684        -7.8011
  27   2.0000      -0.241041        -6.5590
  28   2.0000      -0.240129        -6.5342
  29   0.0000       0.011152         0.3035
  30   0.0000       0.035505         0.9661
  31   0.0000       0.055817         1.5189
  32   0.0000       0.057911         1.5758
  33   0.0000       0.070017         1.9053

MULLIKEN ATOMIC CHARGES
-----------------------
   0 C :   -0.296380
   1 C :   -0.155169
   2 C :   -0.183965
   3 C :   -0.173067
   4 C :   -0.157121
   5 Cl:   -0.155536
   6 H :    0.112608
   7 H :    0.098934
   8 H :    0.105979
   9 H :    0.087142
  10 H :    0.085830
  11 H :    0.085025
  12 H :    0.083794
  13 H :    0.104020
  14 H :    0.094673
  15 H :    0.131477
  16 H :    0.131756
Sum of atomic charges:   -0.0000000

LOEWDIN ATOMIC CHARGES
----------------------
   0 C :   -0.343275
   1 C :   -0.231606
   2 C :   -0.227408
   3 C :   -0.250860
   4 C :   -0.269789
   5 Cl:    0.014546
   6 H :    0.118378
   7 H :    0.117436
   8 H :    0.121327
   9 H :    0.117049
  10 H :    0.115736
  11 H :    0.115671
  12 H :    0.114728
  13 H :    0.120903
  14 H :    0.120658
  15 H :    0.123565
  16 H :    0.122943

  Mayer bond orders larger than 0.100000
B(  0-C ,  1-C ) :   1.1514 B(  0-C ,  6-H ) :   0.9516 B(  0-C ,  7-H ) :   0.9550
B(  0-C ,  8-H ) :   0.9515 B(  1-C ,  2-C ) :   1.1258 B(  1-C ,  9-H ) :   0.9270
B(  1-C , 10-H ) :   0.9254 B(  2-C ,  3-C ) :   1.1115 B(  2-C , 11-H ) :   0.9218
B(  2-C , 12-H ) :   0.9211 B(  3-C ,  4-C ) :   1.1102 B(  3-C , 13-H ) :   0.9133
B(  3-C , 14-H ) :   0.9191 B(  4-C ,  5-Cl) :   1.0389 B(  4-C , 15-H ) :   0.9273
B(  4-C , 16-H ) :   0.9278

Dispersion correction           -0.012631161
FINAL SINGLE POINT ENERGY      -656.512020887372

DIPOLE MOMENT
-------------

Method             : SCF
Type of density    : Electron Density
Multiplicity       :   1
Irrep              :   0
Energy             :  -656.5698187788650557 Eh
Relativity type    :
Basis              : AO
                                X                 Y                 Z
Electronic contribution:    -17.884911018      -2.135059044      -1.078088361
Nuclear contribution   :     18.578805761       2.531571971       1.198169013
                        -----------------------------------------
Total Dipole Moment    :      0.693894743       0.396512928       0.120080652
                        -----------------------------------------
Magnitude (a.u.)       :      0.808165688
Magnitude (Debye)      :      2.054193930

Rotational constants in cm-1:             0.272755             0.031086             0.029271
Rotational constants in MHz :          8176.980429           931.922251           877.526771

                             ****ORCA TERMINATED NORMALLY****
TOTAL RUN TIME: 0 days 0 hours 0 minutes 7 seconds 99 msec
