                         Program Version 6.0.0  -   RELEASE  -
|  1> ! pbe def2-sv(p) def2/J RI DEFGRID1 loosescf d4 GCP(DFT/SV(P)) printgap
|  2> %output
|  3>     printlevel normal
|  4> end
|  5> * xyz 0 1
|  6> C -3.8747151505 -0.3838968724 -0.3128134768
|  7> C -2.6978438825 0.0715831916 0.5414793711
|  8> C -1.3699554012 -0.1283424547 -0.1844476682
|  9> C -0.1807665452 0.301399388 0.6770274758
| 10> C 1.1088723678 0.2401514358 -0.0986064677
| 11> O 1.2501166956 0.6145074136 -1.2440086791
| 12> O 2.0880128958 -0.2783597518 0.6335052125
| 13> C 3.3973936342 -0.3940278818 0.0658262354
| 14> H -4.8118285158 -0.2297288881 0.2155967889
| 15> H -3.907494962 0.1764497286 -1.2442532449
| 16> H -3.7846047167 -1.4405812996 -0.5533961387
| 17> H -2.8177407711 1.1275492664 0.7908144708
| 18> H -2.6865796851 -0.4934744227 1.4754372735
| 19> H -1.3595986937 0.4524975884 -1.1090859947
| 20> H -1.2574510301 -1.1803387482 -0.4550961043
| 21> H -0.0845494519 -0.3194899849 1.5669628846
| 22> H -0.3198441182 1.3393197282 0.9892204443
| 23> H 3.7414614509 -1.4071503883 0.2600576092
| 24> H 4.0477226757 0.3287530831 0.5563163858
| 25> H 3.3545035598 -0.1965858148 -1.0057895668
| 26> *
| 27>
| 28>                          ****END OF INPUT****

CARTESIAN COORDINATES (ANGSTROEM)
---------------------------------
  C     -3.874715   -0.383897   -0.312813
  C     -2.697844    0.071583    0.541479
  C     -1.369955   -0.128342   -0.184448
  C     -0.180767    0.301399    0.677027
  C      1.108872    0.240151   -0.098606
  O      1.250117    0.614507   -1.244009
  O      2.088013   -0.278360    0.633505
  C      3.397394   -0.394028    0.065826
  H     -4.811829   -0.229729    0.215597
  H     -3.907495    0.176450   -1.244253
  H     -3.784605   -1.440581   -0.553396
  H     -2.817741    1.127549    0.790814
  H     -2.686580   -0.493474    1.475437
  H     -1.359599    0.452498   -1.109086
  H     -1.257451   -1.180339   -0.455096
  H     -0.084549   -0.319490    1.566963
  H     -0.319844    1.339320    0.989220
  H      3.741461   -1.407150    0.260058
  H      4.047723    0.328753    0.556316
  H      3.354504   -0.196586   -1.005790

 Total Charge           Charge          ....    0
 Multiplicity           Mult            ....    1
 Number of Electrons    NEL             ....   64
 Basis Dimension        Dim             ....  136

ORBITAL ENERGIES
----------------

  NO   OCC          E(Eh)            E(eV)
   0   2.0000     -18.798926      -511.5448
   1   2.0000     -18.731099      -509.6991
   2   2.0000     -10.005038      -272.2509
   3   2.0000      -9.939399      -270.4648
   4   2.0000      -9.896755      -269.3044
   5   2.0000      -9.887206      -269.0445
   6   2.0000      -9.885807      -269.0065
   7   2.0000      -9.874764      -268.7060
   8   2.0000      -1.003751       -27.3135
   9   2.0000      -0.908507       -24.7217
  10   2.0000      -0.729529       -19.8515
  11   2.0000      -0.686825       -18.6895
  12   2.0000      -0.646804       -17.6004
  13   2.0000      -0.576725       -15.6935
  14   2.0000      -0.520903       -14.1745
  15   2.0000      -0.502338       -13.6693
  16   2.0000      -0.444420       -12.0933
  17   2.0000      -0.440861       -11.9964
  18   2.0000      -0.425771       -11.5858
  19   2.0000      -0.410279       -11.1643
  20   2.0000      -0.389159       -10.5895
  21   2.0000      -0.373856       -10.1731
  22   2.0000      -0.370054       -10.0697
  23   2.0000      -0.349936        -9.5222
  24   2.0000      -0.333504        -9.0751
  25   2.0000      -0.311482        -8.4758
  26   2.0000      -0.302459        -8.2303
  27   2.0000      -0.296347        -8.0640
  28   2.0000      -0.286914        -7.8073
  29   2.0000      -0.285196        -7.7606
  30   2.0000      -0.254938        -6.9372
  31   2.0000      -0.219390        -5.9699
  32   0.0000      -0.017598        -0.4789
  33   0.0000       0.039447         1.0734
  34   0.0000       0.055793         1.5182
  35   0.0000       0.067485         1.8364
  36   0.0000       0.071393         1.9427

MULLIKEN ATOMIC CHARGES
-----------------------
   0 C :   -0.256406
   1 C :   -0.173747
   2 C :   -0.219414
   3 C :   -0.128206
   4 C :    0.111942
   5 O :   -0.204401
   6 O :   -0.238209
   7 C :   -0.130863
   8 H :    0.101909
   9 H :    0.099816
  10 H :    0.097696
  11 H :    0.083596
  12 H :    0.082637
  13 H :    0.105159
  14 H :    0.087768
  15 H :    0.095021
  16 H :    0.108887
  17 H :    0.121969
  18 H :    0.121534
  19 H :    0.133310
Sum of atomic charges:   -0.0000000

LOEWDIN ATOMIC CHARGES
----------------------
   0 C :   -0.338981
   1 C :   -0.233813
   2 C :   -0.221837
   3 C :   -0.245742
   4 C :    0.037272
   5 O :   -0.171355
   6 O :   -0.074592
   7 C :   -0.209556
   8 H :    0.118815
   9 H :    0.118392
  10 H :    0.117254
  11 H :    0.114530
  12 H :    0.113559
  13 H :    0.123860
  14 H :    0.117433
  15 H :    0.128321
  16 H :    0.141836
  17 H :    0.120454
  18 H :    0.120014
  19 H :    0.124135

  Mayer bond orders larger than 0.100000
B(  0-C ,  1-C ) :   1.1616 B(  0-C ,  8-H ) :   0.9529 B(  0-C ,  9-H ) :   0.9540
B(  0-C , 10-H ) :   0.9544 B(  1-C ,  2-C ) :   1.1355 B(  1-C , 11-H ) :   0.9252
B(  1-C , 12-H ) :   0.9237 B(  2-C ,  3-C ) :   1.1261 B(  2-C , 13-H ) :   0.9140
B(  2-C , 14-H ) :   0.9292 B(  3-C ,  4-C ) :   1.0106 B(  3-C , 15-H ) :   0.9078
B(  3-C , 16-H ) :   0.8862 B(  4-C ,  5-O ) :   2.0638 B(  4-C ,  6-O ) :   1.2231
B(  6-O ,  7-C ) :   0.9360 B(  7-C , 17-H ) :   0.9611 B(  7-C , 18-H ) :   0.9604
B(  7-C , 19-H ) :   0.9294

Dispersion correction           -0.014378722
FINAL SINGLE POINT ENERGY      -385.452595184639

DIPOLE MOMENT
-------------

Method             : SCF
Type of density    : Electron Density
Multiplicity       :   1
Irrep              :   0
Energy             :  -385.5279556854688394 Eh
Relativity type    :
Basis              : AO
                                X                 Y                 Z
Electronic contribution:      9.421073001       1.465408871      -0.795130331
Nuclear contribution   :     -9.225221637      -1.723850518       1.385799348
                        -----------------------------------------
Total Dipole Moment    :      0.195851365      -0.258441647       0.590669016
                        -----------------------------------------
Magnitude (a.u.)       :      0.673824702
Magnitude (Debye)      :      1.712726279

Rotational constants in cm-1:             0.224023             0.025066             0.023792
Rotational constants in MHz :          6716.041954           751.474490           713.254203

                             ****ORCA TERMINATED NORMALLY****
TOTAL RUN TIME: 0 days 0 hours 0 minutes 10 seconds 337 msec
