                         Program Version 6.0.0  -   RELEASE  -
|  1> ! r2scan-3c def2/J RI DEFGRID2 scfconv6 printgap
|  2> %output
|  3>     printlevel normal
|  4> end
|  5> * xyz 0 1
|  6> C -3.5379741269 0.1032301667 -1.841781822
|  7> C -3.1763448977 -0.4274130362 -0.4541947874
|  8> H -3.6565495344 -1.3955728893 -0.2859202244
|  9> C -1.6787626954 -0.5924774826 -0.2797754538
| 10> C -1.150942314 -1.8619331022 0.0280223304
| 11> C 0.193113565 -2.0455370018 0.1830552866
| 12> C 1.0922497687 -0.9659751227 0.0440739391
| 13> C 2.4791698953 -1.1195820738 0.1980468641
| 14> C 3.3328654273 -0.0467014178 0.0607106415
| 15> C 2.8090513868 1.2270102321 -0.2389594887
| 16> C 1.4610222263 1.3960825814 -0.3927548881
| 17> C 0.5654347155 0.3173346347 -0.2586539357
| 18> C -0.826328391 0.4729616427 -0.4120560449
| 19> O 4.6623837344 -0.3075012802 0.2307490476
| 20> C 5.5917150987 0.752022368 0.1021124671
| 21> C -3.6378181875 0.4890878252 0.6577512242
| 22> O -4.0503500661 0.0890413026 1.7279506466
| 23> O -3.51593033 1.7737570099 0.3809131343
| 24> H -3.1089169519 1.0871731909 -2.001740787
| 25> H -3.1531452452 -0.5757012846 -2.5976875653
| 26> H -4.6178461982 0.1718230099 -1.9462556224
| 27> H -1.8269422243 -2.6967090824 0.1404257582
| 28> H 0.5883254846 -3.02294325 0.4163011452
| 29> H 2.893404591 -2.0890368392 0.4282493412
| 30> H 3.4667336068 2.0739837182 -0.3487361627
| 31> H 1.065657109 2.37420674 -0.6229525259
| 32> H -1.2111985894 1.4575803954 -0.6327783595
| 33> H 6.5646920344 0.2988266601 0.2782773315
| 34> H 5.4107257209 1.5308835003 0.8473655965
| 35> H 5.5652572043 1.1828620214 -0.9020713493
| 36> H -3.788803389 2.3451371408 1.1248256992
| 37> *
| 38>
| 39>                          ****END OF INPUT****

CARTESIAN COORDINATES (ANGSTROEM)
---------------------------------
  C     -3.537974    0.103230   -1.841782
  C     -3.176345   -0.427413   -0.454195
  H     -3.656550   -1.395573   -0.285920
  C     -1.678763   -0.592477   -0.279775
  C     -1.150942   -1.861933    0.028022
  C      0.193114   -2.045537    0.183055
  C      1.092250   -0.965975    0.044074
  C      2.479170   -1.119582    0.198047
  C      3.332865   -0.046701    0.060711
  C      2.809051    1.227010   -0.238959
  C      1.461022    1.396083   -0.392755
  C      0.565435    0.317335   -0.258654
  C     -0.826328    0.472962   -0.412056
  O      4.662384   -0.307501    0.230749
  C      5.591715    0.752022    0.102112
  C     -3.637818    0.489088    0.657751
  O     -4.050350    0.089041    1.727951
  O     -3.515930    1.773757    0.380913
  H     -3.108917    1.087173   -2.001741
  H     -3.153145   -0.575701   -2.597688
  H     -4.617846    0.171823   -1.946256
  H     -1.826942   -2.696709    0.140426
  H      0.588325   -3.022943    0.416301
  H      2.893405   -2.089037    0.428249
  H      3.466734    2.073984   -0.348736
  H      1.065657    2.374207   -0.622953
  H     -1.211199    1.457580   -0.632778
  H      6.564692    0.298827    0.278277
  H      5.410726    1.530884    0.847366
  H      5.565257    1.182862   -0.902071
  H     -3.788803    2.345137    1.124826

 Total Charge           Charge          ....    0
 Multiplicity           Mult            ....    1
 Number of Electrons    NEL             ....  122
 Basis Dimension        Dim             ....  408

ORBITAL ENERGIES
----------------

  NO   OCC          E(Eh)            E(eV)
   0   2.0000     -19.007164      -517.2112
   1   2.0000     -18.988636      -516.7071
   2   2.0000     -18.929836      -515.1070
   3   2.0000     -10.160153      -276.4718
   4   2.0000     -10.099050      -274.8091
   5   2.0000     -10.090755      -274.5834
   6   2.0000     -10.059184      -273.7243
   7   2.0000     -10.048032      -273.4208
   8   2.0000     -10.046640      -273.3830
   9   2.0000     -10.043564      -273.2993
  10   2.0000     -10.042936      -273.2822
  11   2.0000     -10.041963      -273.2557
  12   2.0000     -10.036542      -273.1082
  13   2.0000     -10.035361      -273.0761
  14   2.0000     -10.035271      -273.0736
  15   2.0000     -10.030486      -272.9434
  16   2.0000     -10.029848      -272.9260
  17   2.0000      -1.080874       -29.4121
  18   2.0000      -1.035891       -28.1880
  19   2.0000      -0.976398       -26.5692
  20   2.0000      -0.850000       -23.1297
  21   2.0000      -0.808874       -22.0106
  22   2.0000      -0.768056       -20.8999
  23   2.0000      -0.746379       -20.3100
  24   2.0000      -0.710947       -19.3459
  25   2.0000      -0.703395       -19.1404
  26   2.0000      -0.661260       -17.9938
  27   2.0000      -0.639883       -17.4121
  28   2.0000      -0.611613       -16.6428
  29   2.0000      -0.587952       -15.9990
  30   2.0000      -0.573384       -15.6026
  31   2.0000      -0.556414       -15.1408
  32   2.0000      -0.506566       -13.7844
  33   2.0000      -0.489096       -13.3090
  34   2.0000      -0.483845       -13.1661
  35   2.0000      -0.456938       -12.4339
  36   2.0000      -0.444156       -12.0861
  37   2.0000      -0.441889       -12.0244
  38   2.0000      -0.440853       -11.9962
  39   2.0000      -0.427863       -11.6427
  40   2.0000      -0.419029       -11.4024
  41   2.0000      -0.413144       -11.2422
  42   2.0000      -0.402199       -10.9444
  43   2.0000      -0.390665       -10.6305
  44   2.0000      -0.382094       -10.3973
  45   2.0000      -0.375840       -10.2271
  46   2.0000      -0.372559       -10.1378
  47   2.0000      -0.363578        -9.8935
  48   2.0000      -0.353602        -9.6220
  49   2.0000      -0.347562        -9.4576
  50   2.0000      -0.333484        -9.0746
  51   2.0000      -0.327927        -8.9233
  52   2.0000      -0.315292        -8.5795
  53   2.0000      -0.310953        -8.4615
  54   2.0000      -0.295740        -8.0475
  55   2.0000      -0.287732        -7.8296
  56   2.0000      -0.284791        -7.7496
  57   2.0000      -0.261884        -7.1262
  58   2.0000      -0.234790        -6.3890
  59   2.0000      -0.223229        -6.0744
  60   2.0000      -0.189304        -5.1512
  61   0.0000      -0.069141        -1.8814
  62   0.0000      -0.037706        -1.0260
  63   0.0000      -0.008114        -0.2208
  64   0.0000      -0.005828        -0.1586
  65   0.0000       0.051135         1.3915

MULLIKEN ATOMIC CHARGES
-----------------------
   0 C :   -0.495898
   1 C :   -0.044892
   2 H :    0.157640
   3 C :    0.167018
   4 C :   -0.220573
   5 C :   -0.300898
   6 C :    0.257646
   7 C :   -0.400357
   8 C :    0.341255
   9 C :   -0.291566
  10 C :   -0.274912
  11 C :    0.165308
  12 C :   -0.275078
  13 O :   -0.180407
  14 C :   -0.333511
  15 C :    0.278865
  16 O :   -0.380120
  17 O :   -0.332922
  18 H :    0.168877
  19 H :    0.157410
  20 H :    0.151946
  21 H :    0.146299
  22 H :    0.141341
  23 H :    0.154739
  24 H :    0.146915
  25 H :    0.142515
  26 H :    0.159428
  27 H :    0.156098
  28 H :    0.153152
  29 H :    0.152826
  30 H :    0.331860
Sum of atomic charges:   -0.0000000

LOEWDIN ATOMIC CHARGES
----------------------
   0 C :   -0.374039
   1 C :   -0.144174
   2 H :    0.187285
   3 C :   -0.074904
   4 C :   -0.143553
   5 C :   -0.141260
   6 C :   -0.048237
   7 C :   -0.118904
   8 C :    0.190270
   9 C :   -0.159800
  10 C :   -0.132041
  11 C :   -0.063329
  12 C :   -0.123629
  13 O :   -0.682248
  14 C :   -0.055812
  15 C :    0.351219
  16 O :   -0.414011
  17 O :   -0.409324
  18 H :    0.167726
  19 H :    0.160616
  20 H :    0.158554
  21 H :    0.171877
  22 H :    0.171771
  23 H :    0.184234
  24 H :    0.175998
  25 H :    0.171512
  26 H :    0.182828
  27 H :    0.181140
  28 H :    0.164322
  29 H :    0.164192
  30 H :    0.301722

  Mayer bond orders larger than 0.100000
B(  0-C ,  1-C ) :   0.9273 B(  0-C , 18-H ) :   0.9647 B(  0-C , 19-H ) :   0.9724
B(  0-C , 20-H ) :   0.9736 B(  1-C ,  2-H ) :   0.9638 B(  1-C ,  3-C ) :   0.7769
B(  1-C , 15-C ) :   0.9890 B(  3-C ,  4-C ) :   1.2585 B(  3-C , 12-C ) :   1.4914
B(  4-C ,  5-C ) :   1.5165 B(  4-C , 21-H ) :   0.9279 B(  5-C ,  6-C ) :   1.1967
B(  5-C , 22-H ) :   0.9574 B(  6-C ,  7-C ) :   1.1412 B(  6-C , 11-C ) :   1.4939
B(  7-C ,  8-C ) :   1.5006 B(  7-C , 23-H ) :   0.9429 B(  8-C ,  9-C ) :   1.2400
B(  8-C , 13-O ) :   1.0540 B(  9-C , 10-C ) :   1.4756 B(  9-C , 24-H ) :   0.9185
B( 10-C , 11-C ) :   1.2212 B( 10-C , 25-H ) :   0.9539 B( 11-C , 12-C ) :   1.1959
B( 12-C , 26-H ) :   0.9296 B( 13-O , 14-C ) :   0.8515 B( 14-C , 27-H ) :   0.9677
B( 14-C , 28-H ) :   0.9641 B( 14-C , 29-H ) :   0.9641 B( 15-C , 16-O ) :   1.9543
B( 15-C , 17-O ) :   1.0318 B( 17-O , 30-H ) :   0.8581

Dispersion correction           -0.013075220
FINAL SINGLE POINT ENERGY      -767.443492443861

DIPOLE MOMENT
-------------

Method             : SCF
Type of density    : Electron Density
Multiplicity       :   1
Irrep              :   0
Energy             :  -767.4441145070038601 Eh
Relativity type    :
Basis              : AO
                                X                 Y                 Z
Electronic contribution:     -3.141014523      -1.687507774       5.003237966
Nuclear contribution   :      3.889229583       2.595982709      -5.690717360
                        -----------------------------------------
Total Dipole Moment    :      0.748215059       0.908474935      -0.687479394
                        -----------------------------------------
Magnitude (a.u.)       :      1.363004182
Magnitude (Debye)      :      3.464481303

Rotational constants in cm-1:             0.041827             0.007191             0.006752
Rotational constants in MHz :          1253.938922           215.581671           202.413418

                             ****ORCA TERMINATED NORMALLY****
TOTAL RUN TIME: 0 days 0 hours 1 minutes 25 seconds 357 msec
