                         Program Version 6.0.0  -   RELEASE  -
|  1> ! r2scan-3c def2/J RI DEFGRID2 scfconv6 printgap
|  2> %output
|  3>     printlevel normal
|  4> end
|  5> %cpcm
|  6>     smd true
|  7>     smdsolvent "water"
|  8> end
|  9> * xyz 0 1
| 10> C -3.5379741269 0.1032301667 -1.841781822
| 11> C -3.1763448977 -0.4274130362 -0.4541947874
| 12> H -3.6565495344 -1.3955728893 -0.2859202244
| 13> C -1.6787626954 -0.5924774826 -0.2797754538
| 14> C -1.150942314 -1.8619331022 0.0280223304
| 15> C 0.193113565 -2.0455370018 0.1830552866
| 16> C 1.0922497687 -0.9659751227 0.0440739391
| 17> C 2.4791698953 -1.1195820738 0.1980468641
| 18> C 3.3328654273 -0.0467014178 0.0607106415
| 19> C 2.8090513868 1.2270102321 -0.2389594887
| 20> C 1.4610222263 1.3960825814 -0.3927548881
| 21> C 0.5654347155 0.3173346347 -0.2586539357
| 22> C -0.826328391 0.4729616427 -0.4120560449
| 23> O 4.6623837344 -0.3075012802 0.2307490476
| 24> C 5.5917150987 0.752022368 0.1021124671
| 25> C -3.6378181875 0.4890878252 0.6577512242
| 26> O -4.0503500661 0.0890413026 1.7279506466
| 27> O -3.51593033 1.7737570099 0.3809131343
| 28> H -3.1089169519 1.0871731909 -2.001740787
| 29> H -3.1531452452 -0.5757012846 -2.5976875653
| 30> H -4.6178461982 0.1718230099 -1.9462556224
| 31> H -1.8269422243 -2.6967090824 0.1404257582
| 32> H 0.5883254846 -3.02294325 0.4163011452
| 33> H 2.893404591 -2.0890368392 0.4282493412
| 34> H 3.4667336068 2.0739837182 -0.3487361627
| 35> H 1.065657109 2.37420674 -0.6229525259
| 36> H -1.2111985894 1.4575803954 -0.6327783595
| 37> H 6.5646920344 0.2988266601 0.2782773315
| 38> H 5.4107257209 1.5308835003 0.8473655965
| 39> H 5.5652572043 1.1828620214 -0.9020713493
| 40> H -3.788803389 2.3451371408 1.1248256992
| 41> *
| 42>
| 43>                          ****END OF INPUT****

CARTESIAN COORDINATES (ANGSTROEM)
---------------------------------
  C     -3.537974    0.103230   -1.841782
  C     -3.176345   -0.427413   -0.454195
  H     -3.656550   -1.395573   -0.285920
  C     -1.678763   -0.592477   -0.279775
  C     -1.150942   -1.861933    0.028022
  C      0.193114   -2.045537    0.183055
  C      1.092250   -0.965975    0.044074
  C      2.479170   -1.119582    0.198047
  C      3.332865   -0.046701    0.060711
  C      2.809051    1.227010   -0.238959
  C      1.461022    1.396083   -0.392755
  C      0.565435    0.317335   -0.258654
  C     -0.826328    0.472962   -0.412056
  O      4.662384   -0.307501    0.230749
  C      5.591715    0.752022    0.102112
  C     -3.637818    0.489088    0.657751
  O     -4.050350    0.089041    1.727951
  O     -3.515930    1.773757    0.380913
  H     -3.108917    1.087173   -2.001741
  H     -3.153145   -0.575701   -2.597688
  H     -4.617846    0.171823   -1.946256
  H     -1.826942   -2.696709    0.140426
  H      0.588325   -3.022943    0.416301
  H      2.893405   -2.089037    0.428249
  H      3.466734    2.073984   -0.348736
  H      1.065657    2.374207   -0.622953
  H     -1.211199    1.457580   -0.632778
  H      6.564692    0.298827    0.278277
  H      5.410726    1.530884    0.847366
  H      5.565257    1.182862   -0.902071
  H     -3.788803    2.345137    1.124826

 Total Charge           Charge          ....    0
 Multiplicity           Mult            ....    1
 Number of Electrons    NEL             ....  122
 Basis Dimension        Dim             ....  408

ORBITAL ENERGIES
----------------

  NO   OCC          E(Eh)            E(eV)
   0   2.0000     -19.003943      -517.1236
   1   2.0000     -18.988781      -516.7110
   2   2.0000     -18.944636      -515.5097
   3   2.0000     -10.169414      -276.7238
   4   2.0000     -10.099572      -274.8233
   5   2.0000     -10.073288      -274.1081
   6   2.0000     -10.055293      -273.6184
   7   2.0000     -10.048541      -273.4347
   8   2.0000     -10.048513      -273.4339
   9   2.0000     -10.044488      -273.3244
  10   2.0000     -10.039990      -273.2020
  11   2.0000     -10.038197      -273.1532
  12   2.0000     -10.035550      -273.0812
  13   2.0000     -10.034675      -273.0574
  14   2.0000     -10.034655      -273.0569
  15   2.0000     -10.030864      -272.9537
  16   2.0000     -10.020854      -272.6813
  17   2.0000      -1.082095       -29.4453
  18   2.0000      -1.035124       -28.1672
  19   2.0000      -0.987404       -26.8686
  20   2.0000      -0.851388       -23.1675
  21   2.0000      -0.808311       -21.9953
  22   2.0000      -0.766249       -20.8507
  23   2.0000      -0.745624       -20.2895
  24   2.0000      -0.709195       -19.2982
  25   2.0000      -0.699957       -19.0468
  26   2.0000      -0.654483       -17.8094
  27   2.0000      -0.634701       -17.2711
  28   2.0000      -0.608568       -16.5600
  29   2.0000      -0.584112       -15.8945
  30   2.0000      -0.571637       -15.5550
  31   2.0000      -0.552865       -15.0442
  32   2.0000      -0.501059       -13.6345
  33   2.0000      -0.486532       -13.2392
  34   2.0000      -0.482022       -13.1165
  35   2.0000      -0.461161       -12.5488
  36   2.0000      -0.451643       -12.2898
  37   2.0000      -0.439072       -11.9478
  38   2.0000      -0.433234       -11.7889
  39   2.0000      -0.429026       -11.6744
  40   2.0000      -0.414545       -11.2803
  41   2.0000      -0.408645       -11.1198
  42   2.0000      -0.398060       -10.8318
  43   2.0000      -0.387315       -10.5394
  44   2.0000      -0.379020       -10.3137
  45   2.0000      -0.374115       -10.1802
  46   2.0000      -0.370256       -10.0752
  47   2.0000      -0.358333        -9.7507
  48   2.0000      -0.351909        -9.5759
  49   2.0000      -0.346359        -9.4249
  50   2.0000      -0.327307        -8.9065
  51   2.0000      -0.326129        -8.8744
  52   2.0000      -0.312385        -8.5004
  53   2.0000      -0.309324        -8.4171
  54   2.0000      -0.297196        -8.0871
  55   2.0000      -0.291587        -7.9345
  56   2.0000      -0.286111        -7.7855
  57   2.0000      -0.266243        -7.2448
  58   2.0000      -0.247714        -6.7406
  59   2.0000      -0.225215        -6.1284
  60   2.0000      -0.191890        -5.2216
  61   0.0000      -0.070538        -1.9194
  62   0.0000      -0.041963        -1.1419
  63   0.0000      -0.013745        -0.3740
  64   0.0000      -0.007704        -0.2096
  65   0.0000       0.064998         1.7687

MULLIKEN ATOMIC CHARGES
-----------------------
   0 C :   -0.545821
   1 C :   -0.011674
   2 H :    0.184217
   3 C :    0.126969
   4 C :   -0.252617
   5 C :   -0.321788
   6 C :    0.206150
   7 C :   -0.427691
   8 C :    0.338829
   9 C :   -0.286412
  10 C :   -0.300235
  11 C :    0.107528
  12 C :   -0.255454
  13 O :   -0.222828
  14 C :   -0.341844
  15 C :    0.303431
  16 O :   -0.470037
  17 O :   -0.349657
  18 H :    0.181196
  19 H :    0.172692
  20 H :    0.171509
  21 H :    0.180429
  22 H :    0.175121
  23 H :    0.183847
  24 H :    0.185401
  25 H :    0.178517
  26 H :    0.189584
  27 H :    0.173750
  28 H :    0.172588
  29 H :    0.172610
  30 H :    0.381691
Sum of atomic charges:   -0.0000000

LOEWDIN ATOMIC CHARGES
----------------------
   0 C :   -0.376598
   1 C :   -0.141465
   2 H :    0.195674
   3 C :   -0.083057
   4 C :   -0.152259
   5 C :   -0.151530
   6 C :   -0.063172
   7 C :   -0.134314
   8 C :    0.181325
   9 C :   -0.155503
  10 C :   -0.135201
  11 C :   -0.077602
  12 C :   -0.127017
  13 O :   -0.707600
  14 C :   -0.051328
  15 C :    0.361257
  16 O :   -0.481439
  17 O :   -0.391601
  18 H :    0.170509
  19 H :    0.165418
  20 H :    0.165354
  21 H :    0.183754
  22 H :    0.183562
  23 H :    0.193260
  24 H :    0.191571
  25 H :    0.185381
  26 H :    0.193431
  27 H :    0.187699
  28 H :    0.174368
  29 H :    0.174388
  30 H :    0.322737

  Mayer bond orders larger than 0.100000
B(  0-C ,  1-C ) :   0.9024 B(  0-C , 18-H ) :   0.9639 B(  0-C , 19-H ) :   0.9697
B(  0-C , 20-H ) :   0.9689 B(  1-C ,  2-H ) :   0.9631 B(  1-C ,  3-C ) :   0.7756
B(  1-C , 15-C ) :   0.9859 B(  3-C ,  4-C ) :   1.2359 B(  3-C , 12-C ) :   1.4580
B(  4-C ,  5-C ) :   1.4776 B(  4-C , 21-H ) :   0.9495 B(  5-C ,  6-C ) :   1.1856
B(  5-C , 22-H ) :   0.9732 B(  6-C ,  7-C ) :   1.1750 B(  6-C , 11-C ) :   1.4002
B(  7-C ,  8-C ) :   1.4425 B(  7-C , 23-H ) :   0.9491 B(  8-C ,  9-C ) :   1.2231
B(  8-C , 13-O ) :   1.0384 B(  9-C , 10-C ) :   1.4506 B(  9-C , 24-H ) :   0.9310
B( 10-C , 11-C ) :   1.2184 B( 10-C , 25-H ) :   0.9709 B( 11-C , 12-C ) :   1.2156
B( 12-C , 26-H ) :   0.9326 B( 13-O , 14-C ) :   0.8432 B( 14-C , 27-H ) :   0.9603
B( 14-C , 28-H ) :   0.9562 B( 14-C , 29-H ) :   0.9561 B( 15-C , 16-O ) :   1.8769
B( 15-C , 17-O ) :   1.0781 B( 17-O , 30-H ) :   0.8336

Dispersion correction           -0.013075220
FINAL SINGLE POINT ENERGY      -767.459611293702

DIPOLE MOMENT
-------------

Method             : SCF
Type of density    : Electron Density
Multiplicity       :   1
Irrep              :   0
Energy             :  -767.4602333568449239 Eh
Relativity type    :
Basis              : AO
                                X                 Y                 Z
Electronic contribution:     -3.020903376      -1.191271595       4.665526716
Nuclear contribution   :      3.889229583       2.595982709      -5.690717360
                        -----------------------------------------
Total Dipole Moment    :      0.868326207       1.404711114      -1.025190644
                        -----------------------------------------
Magnitude (a.u.)       :      1.943764278
Magnitude (Debye)      :      4.940656155

Rotational constants in cm-1:             0.041827             0.007191             0.006752
Rotational constants in MHz :          1253.938922           215.581671           202.413418

                             ****ORCA TERMINATED NORMALLY****
TOTAL RUN TIME: 0 days 0 hours 1 minutes 46 seconds 395 msec
