                         Program Version 6.0.0  -   RELEASE  -
|  1> ! pbe def2-sv(p) def2/J RI DEFGRID1 loosescf d4 GCP(DFT/SV(P)) printgap
|  2> %output
|  3>     printlevel normal
|  4> end
|  5> * xyz 0 1
|  6> C -3.6426985647 -0.7312124516 0.2358486321
|  7> C -2.3886752645 0.1287102119 0.3225961523
|  8> C -1.1748545864 -0.5920874499 -0.265288695
|  9> C 0.0411449581 0.2959438784 -0.2988464261
| 10> O 0.0284376709 1.4914018858 -0.5100056934
| 11> O 1.1523095155 -0.392082815 -0.0745523992
| 12> C 2.4073507109 0.311002578 -0.0878067628
| 13> C 3.4296155362 -0.5252521004 0.6581681232
| 14> H -4.4887976601 -0.2061333034 0.6702591526
| 15> H -3.8760706729 -0.9628627146 -0.80023936
| 16> H -3.5016906204 -1.6643546436 0.7753646111
| 17> H -2.1856871609 0.3808080595 1.3652211702
| 18> H -2.5348092006 1.0650883662 -0.2189629512
| 19> H -1.3899736551 -0.8786585338 -1.2979252221
| 20> H -0.9322066248 -1.494298839 0.2954711287
| 21> H 2.6991531258 0.4639706651 -1.1316272315
| 22> H 2.2599659712 1.2912347359 0.3771330386
| 23> H 3.1167942307 -0.6672383045 1.6885412085
| 24> H 3.5283851972 -1.4975519847 0.1849246345
| 25> H 4.3887442727 -0.0183750582 0.6420085677
| 26> *
| 27>
| 28>                          ****END OF INPUT****

CARTESIAN COORDINATES (ANGSTROEM)
---------------------------------
  C     -3.642699   -0.731212    0.235849
  C     -2.388675    0.128710    0.322596
  C     -1.174855   -0.592087   -0.265289
  C      0.041145    0.295944   -0.298846
  O      0.028438    1.491402   -0.510006
  O      1.152310   -0.392083   -0.074552
  C      2.407351    0.311003   -0.087807
  C      3.429616   -0.525252    0.658168
  H     -4.488798   -0.206133    0.670259
  H     -3.876071   -0.962863   -0.800239
  H     -3.501691   -1.664355    0.775365
  H     -2.185687    0.380808    1.365221
  H     -2.534809    1.065088   -0.218963
  H     -1.389974   -0.878659   -1.297925
  H     -0.932207   -1.494299    0.295471
  H      2.699153    0.463971   -1.131627
  H      2.259966    1.291235    0.377133
  H      3.116794   -0.667238    1.688541
  H      3.528385   -1.497552    0.184925
  H      4.388744   -0.018375    0.642009

 Total Charge           Charge          ....    0
 Multiplicity           Mult            ....    1
 Number of Electrons    NEL             ....   64
 Basis Dimension        Dim             ....  136

ORBITAL ENERGIES
----------------

  NO   OCC          E(Eh)            E(eV)
   0   2.0000     -18.795496      -511.4515
   1   2.0000     -18.731911      -509.7212
   2   2.0000     -10.001033      -272.1419
   3   2.0000      -9.944685      -270.6086
   4   2.0000      -9.894626      -269.2465
   5   2.0000      -9.888328      -269.0751
   6   2.0000      -9.887632      -269.0561
   7   2.0000      -9.876485      -268.7528
   8   2.0000      -1.002298       -27.2739
   9   2.0000      -0.906686       -24.6722
  10   2.0000      -0.725112       -19.7313
  11   2.0000      -0.699733       -19.0407
  12   2.0000      -0.638293       -17.3688
  13   2.0000      -0.580427       -15.7942
  14   2.0000      -0.529114       -14.3979
  15   2.0000      -0.502385       -13.6706
  16   2.0000      -0.447142       -12.1673
  17   2.0000      -0.439569       -11.9613
  18   2.0000      -0.424628       -11.5547
  19   2.0000      -0.400639       -10.9019
  20   2.0000      -0.384031       -10.4500
  21   2.0000      -0.366412        -9.9706
  22   2.0000      -0.359867        -9.7925
  23   2.0000      -0.353887        -9.6298
  24   2.0000      -0.342259        -9.3134
  25   2.0000      -0.316501        -8.6124
  26   2.0000      -0.313989        -8.5441
  27   2.0000      -0.299923        -8.1613
  28   2.0000      -0.291387        -7.9290
  29   2.0000      -0.289251        -7.8709
  30   2.0000      -0.255012        -6.9392
  31   2.0000      -0.216276        -5.8852
  32   0.0000      -0.016730        -0.4552
  33   0.0000       0.038676         1.0524
  34   0.0000       0.049105         1.3362
  35   0.0000       0.077043         2.0965
  36   0.0000       0.082475         2.2443

MULLIKEN ATOMIC CHARGES
-----------------------
   0 C :   -0.253175
   1 C :   -0.213944
   2 C :   -0.160064
   3 C :    0.121508
   4 O :   -0.212996
   5 O :   -0.238503
   6 C :   -0.029229
   7 C :   -0.275680
   8 H :    0.105882
   9 H :    0.097333
  10 H :    0.096490
  11 H :    0.092833
  12 H :    0.108686
  13 H :    0.111534
  14 H :    0.096526
  15 H :    0.102666
  16 H :    0.111238
  17 H :    0.113983
  18 H :    0.113981
  19 H :    0.110932
Sum of atomic charges:    0.0000000

LOEWDIN ATOMIC CHARGES
----------------------
   0 C :   -0.339771
   1 C :   -0.229190
   2 C :   -0.249139
   3 C :    0.036547
   4 O :   -0.170905
   5 O :   -0.071145
   6 C :   -0.110151
   7 C :   -0.350892
   8 H :    0.121261
   9 H :    0.117351
  10 H :    0.116492
  11 H :    0.118647
  12 H :    0.124462
  13 H :    0.141898
  14 H :    0.128976
  15 H :    0.115436
  16 H :    0.118050
  17 H :    0.126112
  18 H :    0.126001
  19 H :    0.129958

  Mayer bond orders larger than 0.100000
B(  0-C ,  1-C ) :   1.1573 B(  0-C ,  8-H ) :   0.9534 B(  0-C ,  9-H ) :   0.9543
B(  0-C , 10-H ) :   0.9527 B(  1-C ,  2-C ) :   1.1274 B(  1-C , 11-H ) :   0.9334
B(  1-C , 12-H ) :   0.9190 B(  2-C ,  3-C ) :   1.0236 B(  2-C , 13-H ) :   0.8897
B(  2-C , 14-H ) :   0.9093 B(  3-C ,  4-O ) :   2.0478 B(  3-C ,  5-O ) :   1.2206
B(  5-O ,  6-C ) :   0.9114 B(  6-C ,  7-C ) :   1.1538 B(  6-C , 15-H ) :   0.9359
B(  6-C , 16-H ) :   0.9221 B(  7-C , 17-H ) :   0.9521 B(  7-C , 18-H ) :   0.9487
B(  7-C , 19-H ) :   0.9447

Dispersion correction           -0.014200392
FINAL SINGLE POINT ENERGY      -385.458120345926

DIPOLE MOMENT
-------------

Method             : SCF
Type of density    : Electron Density
Multiplicity       :   1
Irrep              :   0
Energy             :  -385.5333244637059806 Eh
Relativity type    :
Basis              : AO
                                X                 Y                 Z
Electronic contribution:      3.063014532       3.293685240      -2.227427985
Nuclear contribution   :     -2.718366653      -3.913089829       2.383815470
                        -----------------------------------------
Total Dipole Moment    :      0.344647879      -0.619404588       0.156387485
                        -----------------------------------------
Magnitude (a.u.)       :      0.725879639
Magnitude (Debye)      :      1.845039415

Rotational constants in cm-1:             0.188520             0.027610             0.025274
Rotational constants in MHz :          5651.695045           827.727709           757.704598

                             ****ORCA TERMINATED NORMALLY****
TOTAL RUN TIME: 0 days 0 hours 0 minutes 10 seconds 598 msec
