                         Program Version 6.0.0  -   RELEASE  -
|  1> ! r2scan-3c def2/J RI DEFGRID2 scfconv6 printgap
|  2> %output
|  3>     printlevel normal
|  4> end
|  5> * xyz 0 1
|  6> C 1.2361550971 -1.6942913183 0.517405782
|  7> O 0.897956881 -0.9153102387 -0.637442939
|  8> C -0.0950362159 0.0199456964 -0.433491516
|  9> O 0.282716357 1.0267252448 0.4603616542
| 10> C 1.2948517197 1.8928157796 -0.0384989438
| 11> O -1.2308712833 -0.5970114993 0.0545557611
| 12> C -2.3925147984 0.2276411309 0.0612750917
| 13> H 0.4142918386 -2.3652419962 0.768185982
| 14> H 1.4497302398 -1.039046117 1.3635577559
| 15> H 2.1200819665 -2.2548194953 0.2290480391
| 16> H -0.2771951479 0.4630251284 -1.4376999879
| 17> H 1.5045031919 2.5867341916 0.7699464697
| 18> H 0.9306753216 2.4286442516 -0.9196578862
| 19> H 2.1911284116 1.326857525 -0.3010728666
| 20> H -2.6245675364 0.5590865016 -0.954640219
| 21> H -2.2428902456 1.0919340678 0.7102723939
| 22> H -3.1867710766 -0.4050618968 0.4456155362
| 23> *
| 24>
| 25>                          ****END OF INPUT****

CARTESIAN COORDINATES (ANGSTROEM)
---------------------------------
  C      1.236155   -1.694291    0.517406
  O      0.897957   -0.915310   -0.637443
  C     -0.095036    0.019946   -0.433492
  O      0.282716    1.026725    0.460362
  C      1.294852    1.892816   -0.038499
  O     -1.230871   -0.597011    0.054556
  C     -2.392515    0.227641    0.061275
  H      0.414292   -2.365242    0.768186
  H      1.449730   -1.039046    1.363558
  H      2.120082   -2.254819    0.229048
  H     -0.277195    0.463025   -1.437700
  H      1.504503    2.586734    0.769946
  H      0.930675    2.428644   -0.919658
  H      2.191128    1.326858   -0.301073
  H     -2.624568    0.559087   -0.954640
  H     -2.242890    1.091934    0.710272
  H     -3.186771   -0.405062    0.445616

 Total Charge           Charge          ....    0
 Multiplicity           Mult            ....    1
 Number of Electrons    NEL             ....   58
 Basis Dimension        Dim             ....  198

ORBITAL ENERGIES
----------------

  NO   OCC          E(Eh)            E(eV)
   0   2.0000     -18.962762      -516.0030
   1   2.0000     -18.959439      -515.9126
   2   2.0000     -18.958496      -515.8869
   3   2.0000     -10.172263      -276.8014
   4   2.0000     -10.075319      -274.1634
   5   2.0000     -10.074959      -274.1536
   6   2.0000     -10.065153      -273.8867
   7   2.0000      -1.068142       -29.0656
   8   2.0000      -0.982308       -26.7300
   9   2.0000      -0.977313       -26.5940
  10   2.0000      -0.705212       -19.1898
  11   2.0000      -0.660344       -17.9689
  12   2.0000      -0.652924       -17.7670
  13   2.0000      -0.560180       -15.2433
  14   2.0000      -0.491621       -13.3777
  15   2.0000      -0.485670       -13.2158
  16   2.0000      -0.482803       -13.1377
  17   2.0000      -0.420386       -11.4393
  18   2.0000      -0.413464       -11.2509
  19   2.0000      -0.397489       -10.8162
  20   2.0000      -0.393076       -10.6961
  21   2.0000      -0.386569       -10.5191
  22   2.0000      -0.365379        -9.9425
  23   2.0000      -0.327026        -8.8988
  24   2.0000      -0.306109        -8.3297
  25   2.0000      -0.287722        -7.8293
  26   2.0000      -0.247869        -6.7448
  27   2.0000      -0.245745        -6.6871
  28   2.0000      -0.234902        -6.3920
  29   0.0000       0.066910         1.8207
  30   0.0000       0.087316         2.3760
  31   0.0000       0.092006         2.5036
  32   0.0000       0.105365         2.8671
  33   0.0000       0.115994         3.1564

MULLIKEN ATOMIC CHARGES
-----------------------
   0 C :   -0.302630
   1 O :   -0.222297
   2 C :    0.109057
   3 O :   -0.242157
   4 C :   -0.306001
   5 O :   -0.206679
   6 C :   -0.304099
   7 H :    0.159404
   8 H :    0.157118
   9 H :    0.144789
  10 H :    0.115384
  11 H :    0.150539
  12 H :    0.136068
  13 H :    0.160746
  14 H :    0.134727
  15 H :    0.165887
  16 H :    0.150143
Sum of atomic charges:   -0.0000000

LOEWDIN ATOMIC CHARGES
----------------------
   0 C :   -0.065634
   1 O :   -0.631055
   2 C :    0.408915
   3 O :   -0.671335
   4 C :   -0.065071
   5 O :   -0.640364
   6 C :   -0.058232
   7 H :    0.171333
   8 H :    0.170714
   9 H :    0.173481
  10 H :    0.196504
  11 H :    0.176751
  12 H :    0.159576
  13 H :    0.167328
  14 H :    0.159991
  15 H :    0.170042
  16 H :    0.177053

  Mayer bond orders larger than 0.100000
B(  0-C ,  1-O ) :   0.8620 B(  0-C ,  7-H ) :   0.9674 B(  0-C ,  8-H ) :   0.9665
B(  0-C ,  9-H ) :   0.9706 B(  1-O ,  2-C ) :   1.0752 B(  2-C ,  3-O ) :   0.9255
B(  2-C ,  5-O ) :   1.0631 B(  2-C , 10-H ) :   0.9625 B(  3-O ,  4-C ) :   0.8711
B(  4-C , 11-H ) :   0.9715 B(  4-C , 12-H ) :   0.9667 B(  4-C , 13-H ) :   0.9661
B(  5-O ,  6-C ) :   0.8583 B(  6-C , 14-H ) :   0.9650 B(  6-C , 15-H ) :   0.9673
B(  6-C , 16-H ) :   0.9716

Dispersion correction           -0.003974192
FINAL SINGLE POINT ENERGY      -383.997301228399

DIPOLE MOMENT
-------------

Method             : SCF
Type of density    : Electron Density
Multiplicity       :   1
Irrep              :   0
Energy             :  -384.0113328917600484 Eh
Relativity type    :
Basis              : AO
                                X                 Y                 Z
Electronic contribution:     -0.296703132      -1.751500198      -0.613735831
Nuclear contribution   :      0.260992334       2.237003082       0.630091217
                        -----------------------------------------
Total Dipole Moment    :     -0.035710797       0.485502884       0.016355386
                        -----------------------------------------
Magnitude (a.u.)       :      0.487089119
Magnitude (Debye)      :      1.238082149

Rotational constants in cm-1:             0.101813             0.081768             0.051831
Rotational constants in MHz :          3052.271129          2451.335254          1553.855737

                             ****ORCA TERMINATED NORMALLY****
TOTAL RUN TIME: 0 days 0 hours 0 minutes 23 seconds 665 msec
