                         Program Version 6.0.0  -   RELEASE  -
|  1> ! r2scan-3c def2/J RI DEFGRID2 scfconv6 printgap
|  2> %output
|  3>     printlevel normal
|  4> end
|  5> %cpcm
|  6>     smd true
|  7>     smdsolvent "water"
|  8> end
|  9> * xyz 0 1
| 10> C 1.2361550971 -1.6942913183 0.517405782
| 11> O 0.897956881 -0.9153102387 -0.637442939
| 12> C -0.0950362159 0.0199456964 -0.433491516
| 13> O 0.282716357 1.0267252448 0.4603616542
| 14> C 1.2948517197 1.8928157796 -0.0384989438
| 15> O -1.2308712833 -0.5970114993 0.0545557611
| 16> C -2.3925147984 0.2276411309 0.0612750917
| 17> H 0.4142918386 -2.3652419962 0.768185982
| 18> H 1.4497302398 -1.039046117 1.3635577559
| 19> H 2.1200819665 -2.2548194953 0.2290480391
| 20> H -0.2771951479 0.4630251284 -1.4376999879
| 21> H 1.5045031919 2.5867341916 0.7699464697
| 22> H 0.9306753216 2.4286442516 -0.9196578862
| 23> H 2.1911284116 1.326857525 -0.3010728666
| 24> H -2.6245675364 0.5590865016 -0.954640219
| 25> H -2.2428902456 1.0919340678 0.7102723939
| 26> H -3.1867710766 -0.4050618968 0.4456155362
| 27> *
| 28>
| 29>                          ****END OF INPUT****

CARTESIAN COORDINATES (ANGSTROEM)
---------------------------------
  C      1.236155   -1.694291    0.517406
  O      0.897957   -0.915310   -0.637443
  C     -0.095036    0.019946   -0.433492
  O      0.282716    1.026725    0.460362
  C      1.294852    1.892816   -0.038499
  O     -1.230871   -0.597011    0.054556
  C     -2.392515    0.227641    0.061275
  H      0.414292   -2.365242    0.768186
  H      1.449730   -1.039046    1.363558
  H      2.120082   -2.254819    0.229048
  H     -0.277195    0.463025   -1.437700
  H      1.504503    2.586734    0.769946
  H      0.930675    2.428644   -0.919658
  H      2.191128    1.326858   -0.301073
  H     -2.624568    0.559087   -0.954640
  H     -2.242890    1.091934    0.710272
  H     -3.186771   -0.405062    0.445616

 Total Charge           Charge          ....    0
 Multiplicity           Mult            ....    1
 Number of Electrons    NEL             ....   58
 Basis Dimension        Dim             ....  198

ORBITAL ENERGIES
----------------

  NO   OCC          E(Eh)            E(eV)
   0   2.0000     -18.971973      -516.2536
   1   2.0000     -18.970438      -516.2118
   2   2.0000     -18.966296      -516.0991
   3   2.0000     -10.176381      -276.9134
   4   2.0000     -10.069659      -274.0094
   5   2.0000     -10.067972      -273.9634
   6   2.0000     -10.066527      -273.9241
   7   2.0000      -1.076752       -29.2999
   8   2.0000      -0.990616       -26.9560
   9   2.0000      -0.985600       -26.8195
  10   2.0000      -0.707519       -19.2526
  11   2.0000      -0.661638       -18.0041
  12   2.0000      -0.650758       -17.7080
  13   2.0000      -0.561002       -15.2656
  14   2.0000      -0.494063       -13.4441
  15   2.0000      -0.489808       -13.3284
  16   2.0000      -0.488033       -13.2801
  17   2.0000      -0.420529       -11.4432
  18   2.0000      -0.414444       -11.2776
  19   2.0000      -0.397358       -10.8127
  20   2.0000      -0.391680       -10.6582
  21   2.0000      -0.386826       -10.5261
  22   2.0000      -0.362962        -9.8767
  23   2.0000      -0.331753        -9.0275
  24   2.0000      -0.312426        -8.5015
  25   2.0000      -0.295601        -8.0437
  26   2.0000      -0.255800        -6.9607
  27   2.0000      -0.251975        -6.8566
  28   2.0000      -0.243361        -6.6222
  29   0.0000       0.067861         1.8466
  30   0.0000       0.085962         2.3391
  31   0.0000       0.093799         2.5524
  32   0.0000       0.114975         3.1286
  33   0.0000       0.120691         3.2842

MULLIKEN ATOMIC CHARGES
-----------------------
   0 C :   -0.315356
   1 O :   -0.274644
   2 C :    0.123270
   3 O :   -0.287590
   4 C :   -0.323960
   5 O :   -0.262736
   6 C :   -0.317616
   7 H :    0.167556
   8 H :    0.170704
   9 H :    0.169710
  10 H :    0.146501
  11 H :    0.171115
  12 H :    0.162679
  13 H :    0.166869
  14 H :    0.163160
  15 H :    0.169088
  16 H :    0.171250
Sum of atomic charges:    0.0000000

LOEWDIN ATOMIC CHARGES
----------------------
   0 C :   -0.065917
   1 O :   -0.660850
   2 C :    0.407236
   3 O :   -0.694922
   4 C :   -0.061765
   5 O :   -0.671207
   6 C :   -0.055351
   7 H :    0.173713
   8 H :    0.175943
   9 H :    0.183772
  10 H :    0.211955
  11 H :    0.184934
  12 H :    0.170951
  13 H :    0.171096
  14 H :    0.172254
  15 H :    0.172982
  16 H :    0.185177

  Mayer bond orders larger than 0.100000
B(  0-C ,  1-O ) :   0.8502 B(  0-C ,  7-H ) :   0.9617 B(  0-C ,  8-H ) :   0.9599
B(  0-C ,  9-H ) :   0.9618 B(  1-O ,  2-C ) :   1.0508 B(  2-C ,  3-O ) :   0.9376
B(  2-C ,  5-O ) :   1.0618 B(  2-C , 10-H ) :   0.9554 B(  3-O ,  4-C ) :   0.8605
B(  4-C , 11-H ) :   0.9625 B(  4-C , 12-H ) :   0.9602 B(  4-C , 13-H ) :   0.9611
B(  5-O ,  6-C ) :   0.8499 B(  6-C , 14-H ) :   0.9589 B(  6-C , 15-H ) :   0.9613
B(  6-C , 16-H ) :   0.9625

Dispersion correction           -0.003974192
FINAL SINGLE POINT ENERGY      -384.002023066251

DIPOLE MOMENT
-------------

Method             : SCF
Type of density    : Electron Density
Multiplicity       :   1
Irrep              :   0
Energy             :  -384.0160547296123923 Eh
Relativity type    :
Basis              : AO
                                X                 Y                 Z
Electronic contribution:     -0.294151171      -1.526830126      -0.710219538
Nuclear contribution   :      0.260992334       2.237003082       0.630091217
                        -----------------------------------------
Total Dipole Moment    :     -0.033158836       0.710172956      -0.080128321
                        -----------------------------------------
Magnitude (a.u.)       :      0.715447890
Magnitude (Debye)      :      1.818524017

Rotational constants in cm-1:             0.101813             0.081768             0.051831
Rotational constants in MHz :          3052.271129          2451.335254          1553.855737

                             ****ORCA TERMINATED NORMALLY****
TOTAL RUN TIME: 0 days 0 hours 0 minutes 30 seconds 563 msec
