                         Program Version 6.0.1  -  RELEASE   -
|  1> ! r2scan-3c def2/J RI DEFGRID2 scfconv6 printgap
|  2> %output
|  3>     printlevel normal
|  4> end
|  5> * xyz 0 1
|  6> C -3.7463524589 0.5396687881 -1.8026260603
|  7> C -3.2839222889 -0.4280149654 -0.7121498367
|  8> H -3.5700922762 -1.4521122069 -0.9617526283
|  9> C -1.784025099 -0.3686107209 -0.5256439184
| 10> C -0.9826082187 -1.461943156 -0.8277480781
| 11> C 0.388976172 -1.3955961621 -0.674651991
| 12> C 1.0164463522 -0.2393589924 -0.2137833419
| 13> C 0.1873857886 0.8359967755 0.0903582668
| 14> C -1.1832668473 0.7915214143 -0.0539883756
| 15> F 0.729857805 1.9884507162 0.5851553093
| 16> C 2.4783086768 -0.1806108533 -0.0565463932
| 17> C 3.1577656292 -1.2441213971 0.5336990015
| 18> C 4.5316743649 -1.2024473353 0.6800272476
| 19> C 5.2463994534 -0.1028686061 0.2336475039
| 20> C 4.5791367216 0.9566187647 -0.3579290189
| 21> C 3.2040636409 0.9210967012 -0.5014612909
| 22> C -3.9104099011 -0.0854637254 0.625189553
| 23> O -4.1344246445 1.0367242713 1.0213404087
| 24> O -4.1579595283 -1.1658184972 1.3453171183
| 25> H -4.8099951844 0.415631058 -1.9875501224
| 26> H -3.5692973345 1.5657865457 -1.4920509312
| 27> H -3.2002757636 0.3470387787 -2.7212651161
| 28> H -1.4341270573 -2.3717539371 -1.1905993394
| 29> H 0.9990108568 -2.247478849 -0.9304701741
| 30> H -1.7713565495 1.6543060672 0.2184447019
| 31> H 2.6006913269 -2.094816347 0.8963735189
| 32> H 5.046747844 -2.0292907234 1.1451966876
| 33> H 6.3192370707 -0.0709368761 0.3472541439
| 34> H 5.1305694565 1.8153646619 -0.7100648468
| 35> H 2.6915248214 1.7473039248 -0.9714818877
| 36> H -4.5285974326 -0.9629837762 2.2267678506
| 37> *
| 38>
| 39>                          ****END OF INPUT****

CARTESIAN COORDINATES (ANGSTROEM)
---------------------------------
  C     -3.746352    0.539669   -1.802626
  C     -3.283922   -0.428015   -0.712150
  H     -3.570092   -1.452112   -0.961753
  C     -1.784025   -0.368611   -0.525644
  C     -0.982608   -1.461943   -0.827748
  C      0.388976   -1.395596   -0.674652
  C      1.016446   -0.239359   -0.213783
  C      0.187386    0.835997    0.090358
  C     -1.183267    0.791521   -0.053988
  F      0.729858    1.988451    0.585155
  C      2.478309   -0.180611   -0.056546
  C      3.157766   -1.244121    0.533699
  C      4.531674   -1.202447    0.680027
  C      5.246399   -0.102869    0.233648
  C      4.579137    0.956619   -0.357929
  C      3.204064    0.921097   -0.501461
  C     -3.910410   -0.085464    0.625190
  O     -4.134425    1.036724    1.021340
  O     -4.157960   -1.165818    1.345317
  H     -4.809995    0.415631   -1.987550
  H     -3.569297    1.565787   -1.492051
  H     -3.200276    0.347039   -2.721265
  H     -1.434127   -2.371754   -1.190599
  H      0.999011   -2.247479   -0.930470
  H     -1.771357    1.654306    0.218445
  H      2.600691   -2.094816    0.896374
  H      5.046748   -2.029291    1.145197
  H      6.319237   -0.070937    0.347254
  H      5.130569    1.815365   -0.710065
  H      2.691525    1.747304   -0.971482
  H     -4.528597   -0.962984    2.226768

 Total Charge           Charge          ....    0
 Multiplicity           Mult            ....    1
 Number of Electrons    NEL             ....  128
 Basis Dimension        Dim             ....  422

ORBITAL ENERGIES
----------------

  NO   OCC          E(Eh)            E(eV)
   0   2.0000     -24.495603      -666.5592
   1   2.0000     -19.011915      -517.3405
   2   2.0000     -18.942155      -515.4422
   3   2.0000     -10.168606      -276.7018
   4   2.0000     -10.124275      -275.4955
   5   2.0000     -10.067184      -273.9420
   6   2.0000     -10.062423      -273.8125
   7   2.0000     -10.057398      -273.6757
   8   2.0000     -10.052329      -273.5378
   9   2.0000     -10.048621      -273.4369
  10   2.0000     -10.043973      -273.3104
  11   2.0000     -10.043408      -273.2950
  12   2.0000     -10.039373      -273.1852
  13   2.0000     -10.038458      -273.1603
  14   2.0000     -10.037777      -273.1418
  15   2.0000     -10.037457      -273.1331
  16   2.0000     -10.037121      -273.1240
  17   2.0000     -10.033319      -273.0205
  18   2.0000      -1.178856       -32.0783
  19   2.0000      -1.086145       -29.5555
  20   2.0000      -0.988199       -26.8903
  21   2.0000      -0.853997       -23.2384
  22   2.0000      -0.831415       -22.6239
  23   2.0000      -0.790072       -21.4990
  24   2.0000      -0.744078       -20.2474
  25   2.0000      -0.727434       -19.7945
  26   2.0000      -0.720059       -19.5938
  27   2.0000      -0.694239       -18.8912
  28   2.0000      -0.656093       -17.8532
  29   2.0000      -0.612744       -16.6736
  30   2.0000      -0.599379       -16.3099
  31   2.0000      -0.575171       -15.6512
  32   2.0000      -0.568578       -15.4718
  33   2.0000      -0.555382       -15.1127
  34   2.0000      -0.511151       -13.9091
  35   2.0000      -0.492255       -13.3949
  36   2.0000      -0.487092       -13.2544
  37   2.0000      -0.461578       -12.5602
  38   2.0000      -0.453859       -12.3501
  39   2.0000      -0.451038       -12.2734
  40   2.0000      -0.438573       -11.9342
  41   2.0000      -0.431237       -11.7346
  42   2.0000      -0.421558       -11.4712
  43   2.0000      -0.413990       -11.2652
  44   2.0000      -0.410175       -11.1614
  45   2.0000      -0.407537       -11.0896
  46   2.0000      -0.392785       -10.6882
  47   2.0000      -0.381682       -10.3861
  48   2.0000      -0.381440       -10.3795
  49   2.0000      -0.364439        -9.9169
  50   2.0000      -0.360126        -9.7995
  51   2.0000      -0.351265        -9.5584
  52   2.0000      -0.343365        -9.3434
  53   2.0000      -0.334853        -9.1118
  54   2.0000      -0.332034        -9.0351
  55   2.0000      -0.326642        -8.8884
  56   2.0000      -0.315109        -8.5745
  57   2.0000      -0.307629        -8.3710
  58   2.0000      -0.300054        -8.1649
  59   2.0000      -0.263129        -7.1601
  60   2.0000      -0.247939        -6.7468
  61   2.0000      -0.240987        -6.5576
  62   2.0000      -0.239921        -6.5286
  63   2.0000      -0.216707        -5.8969
  64   0.0000      -0.063897        -1.7387
  65   0.0000      -0.040160        -1.0928
  66   0.0000      -0.034711        -0.9445
  67   0.0000      -0.028048        -0.7632
  68   0.0000      -0.004507        -0.1226

MULLIKEN ATOMIC CHARGES
-----------------------
   0 C :   -0.493627
   1 C :   -0.036089
   2 H :    0.153483
   3 C :    0.142767
   4 C :   -0.238256
   5 C :   -0.197409
   6 C :    0.059083
   7 C :    0.308956
   8 C :   -0.351106
   9 F :   -0.239449
  10 C :    0.104274
  11 C :   -0.208774
  12 C :   -0.170182
  13 C :   -0.135934
  14 C :   -0.172565
  15 C :   -0.180263
  16 C :    0.338063
  17 O :   -0.408874
  18 O :   -0.334484
  19 H :    0.150277
  20 H :    0.181238
  21 H :    0.157515
  22 H :    0.147348
  23 H :    0.154450
  24 H :    0.193381
  25 H :    0.152516
  26 H :    0.145607
  27 H :    0.146863
  28 H :    0.145918
  29 H :    0.155343
  30 H :    0.329930
Sum of atomic charges:    0.0000000

LOEWDIN ATOMIC CHARGES
----------------------
   0 C :   -0.370199
   1 C :   -0.146381
   2 H :    0.186616
   3 C :   -0.059788
   4 C :   -0.158230
   5 C :   -0.129419
   6 C :   -0.062695
   7 C :    0.239571
   8 C :   -0.127451
   9 F :   -0.286831
  10 C :   -0.062849
  11 C :   -0.146509
  12 C :   -0.160553
  13 C :   -0.163401
  14 C :   -0.158698
  15 C :   -0.132104
  16 C :    0.353067
  17 O :   -0.424194
  18 O :   -0.390702
  19 H :    0.159873
  20 H :    0.172288
  21 H :    0.161066
  22 H :    0.172147
  23 H :    0.177529
  24 H :    0.201053
  25 H :    0.173730
  26 H :    0.167851
  27 H :    0.167268
  28 H :    0.168418
  29 H :    0.177908
  30 H :    0.301618

  Mayer bond orders larger than 0.100000
B(  0-C ,  1-C ) :   0.9369 B(  0-C , 19-H ) :   0.9699 B(  0-C , 20-H ) :   0.9639
B(  0-C , 21-H ) :   0.9730 B(  1-C ,  2-H ) :   0.9698 B(  1-C ,  3-C ) :   0.8244
B(  1-C , 16-C ) :   0.9358 B(  3-C ,  4-C ) :   1.3728 B(  3-C ,  6-C ) :   0.1049
B(  3-C ,  8-C ) :   1.3812 B(  4-C ,  5-C ) :   1.4366 B(  4-C , 22-H ) :   0.9378
B(  5-C ,  6-C ) :   1.3709 B(  5-C , 23-H ) :   0.9375 B(  6-C ,  7-C ) :   1.4408
B(  6-C , 10-C ) :   0.7797 B(  7-C ,  8-C ) :   1.4049 B(  7-C ,  9-F ) :   0.9011
B(  8-C , 24-H ) :   0.9133 B( 10-C , 11-C ) :   1.3917 B( 10-C , 15-C ) :   1.4211
B( 11-C , 12-C ) :   1.4379 B( 11-C , 25-H ) :   0.9408 B( 12-C , 13-C ) :   1.4176
B( 12-C , 26-H ) :   0.9492 B( 13-C , 14-C ) :   1.4124 B( 13-C , 27-H ) :   0.9462
B( 14-C , 15-C ) :   1.4367 B( 14-C , 28-H ) :   0.9507 B( 15-C , 29-H ) :   0.9373
B( 16-C , 17-O ) :   1.9097 B( 16-C , 18-O ) :   1.0697 B( 18-O , 30-H ) :   0.8594

Dispersion correction           -0.013416645
FINAL SINGLE POINT ENERGY      -829.578341250859

DIPOLE MOMENT
-------------

Method             : SCF
Type of density    : Electron Density
Multiplicity       :   1
Irrep              :   0
Energy             :  -829.5755455188382257 Eh
Relativity type    :
Basis              : AO
                                X                 Y                 Z
Electronic contribution:      0.795086072       4.249065965       5.981792703
Nuclear contribution   :     -0.889043554      -5.300411724      -6.259227477
                        -----------------------------------------
Total Dipole Moment    :     -0.093957482      -1.051345759      -0.277434774
                        -----------------------------------------
Magnitude (a.u.)       :      1.091387175
Magnitude (Debye)      :      2.774085740

Rotational constants in cm-1:             0.038426             0.006430             0.006150
Rotational constants in MHz :          1151.973890           192.774075           184.366187

                             ****ORCA TERMINATED NORMALLY****
TOTAL RUN TIME: 0 days 0 hours 1 minutes 1 seconds 993 msec
