                         Program Version 6.0.1  -  RELEASE   -
|  1> ! r2scan-3c def2/J RI DEFGRID2 scfconv6 printgap
|  2> %output
|  3>     printlevel normal
|  4> end
|  5> %cpcm
|  6>     smd true
|  7>     smdsolvent "water"
|  8> end
|  9> * xyz 0 1
| 10> C -3.7463524589 0.5396687881 -1.8026260603
| 11> C -3.2839222889 -0.4280149654 -0.7121498367
| 12> H -3.5700922762 -1.4521122069 -0.9617526283
| 13> C -1.784025099 -0.3686107209 -0.5256439184
| 14> C -0.9826082187 -1.461943156 -0.8277480781
| 15> C 0.388976172 -1.3955961621 -0.674651991
| 16> C 1.0164463522 -0.2393589924 -0.2137833419
| 17> C 0.1873857886 0.8359967755 0.0903582668
| 18> C -1.1832668473 0.7915214143 -0.0539883756
| 19> F 0.729857805 1.9884507162 0.5851553093
| 20> C 2.4783086768 -0.1806108533 -0.0565463932
| 21> C 3.1577656292 -1.2441213971 0.5336990015
| 22> C 4.5316743649 -1.2024473353 0.6800272476
| 23> C 5.2463994534 -0.1028686061 0.2336475039
| 24> C 4.5791367216 0.9566187647 -0.3579290189
| 25> C 3.2040636409 0.9210967012 -0.5014612909
| 26> C -3.9104099011 -0.0854637254 0.625189553
| 27> O -4.1344246445 1.0367242713 1.0213404087
| 28> O -4.1579595283 -1.1658184972 1.3453171183
| 29> H -4.8099951844 0.415631058 -1.9875501224
| 30> H -3.5692973345 1.5657865457 -1.4920509312
| 31> H -3.2002757636 0.3470387787 -2.7212651161
| 32> H -1.4341270573 -2.3717539371 -1.1905993394
| 33> H 0.9990108568 -2.247478849 -0.9304701741
| 34> H -1.7713565495 1.6543060672 0.2184447019
| 35> H 2.6006913269 -2.094816347 0.8963735189
| 36> H 5.046747844 -2.0292907234 1.1451966876
| 37> H 6.3192370707 -0.0709368761 0.3472541439
| 38> H 5.1305694565 1.8153646619 -0.7100648468
| 39> H 2.6915248214 1.7473039248 -0.9714818877
| 40> H -4.5285974326 -0.9629837762 2.2267678506
| 41> *
| 42>
| 43>                          ****END OF INPUT****

CARTESIAN COORDINATES (ANGSTROEM)
---------------------------------
  C     -3.746352    0.539669   -1.802626
  C     -3.283922   -0.428015   -0.712150
  H     -3.570092   -1.452112   -0.961753
  C     -1.784025   -0.368611   -0.525644
  C     -0.982608   -1.461943   -0.827748
  C      0.388976   -1.395596   -0.674652
  C      1.016446   -0.239359   -0.213783
  C      0.187386    0.835997    0.090358
  C     -1.183267    0.791521   -0.053988
  F      0.729858    1.988451    0.585155
  C      2.478309   -0.180611   -0.056546
  C      3.157766   -1.244121    0.533699
  C      4.531674   -1.202447    0.680027
  C      5.246399   -0.102869    0.233648
  C      4.579137    0.956619   -0.357929
  C      3.204064    0.921097   -0.501461
  C     -3.910410   -0.085464    0.625190
  O     -4.134425    1.036724    1.021340
  O     -4.157960   -1.165818    1.345317
  H     -4.809995    0.415631   -1.987550
  H     -3.569297    1.565787   -1.492051
  H     -3.200276    0.347039   -2.721265
  H     -1.434127   -2.371754   -1.190599
  H      0.999011   -2.247479   -0.930470
  H     -1.771357    1.654306    0.218445
  H      2.600691   -2.094816    0.896374
  H      5.046748   -2.029291    1.145197
  H      6.319237   -0.070937    0.347254
  H      5.130569    1.815365   -0.710065
  H      2.691525    1.747304   -0.971482
  H     -4.528597   -0.962984    2.226768

 Total Charge           Charge          ....    0
 Multiplicity           Mult            ....    1
 Number of Electrons    NEL             ....  128
 Basis Dimension        Dim             ....  422

ORBITAL ENERGIES
----------------

  NO   OCC          E(Eh)            E(eV)
   0   2.0000     -24.502027      -666.7340
   1   2.0000     -19.004262      -517.1322
   2   2.0000     -18.948580      -515.6171
   3   2.0000     -10.171527      -276.7813
   4   2.0000     -10.125013      -275.5156
   5   2.0000     -10.059426      -273.7309
   6   2.0000     -10.058126      -273.6955
   7   2.0000     -10.056476      -273.6506
   8   2.0000     -10.052275      -273.5363
   9   2.0000     -10.043975      -273.3105
  10   2.0000     -10.042433      -273.2685
  11   2.0000     -10.037555      -273.1357
  12   2.0000     -10.036618      -273.1103
  13   2.0000     -10.036321      -273.1022
  14   2.0000     -10.035328      -273.0752
  15   2.0000     -10.035097      -273.0689
  16   2.0000     -10.034320      -273.0477
  17   2.0000     -10.022456      -272.7249
  18   2.0000      -1.185997       -32.2726
  19   2.0000      -1.082664       -29.4608
  20   2.0000      -0.991384       -26.9769
  21   2.0000      -0.852582       -23.1999
  22   2.0000      -0.830402       -22.5964
  23   2.0000      -0.785554       -21.3760
  24   2.0000      -0.741021       -20.1642
  25   2.0000      -0.725185       -19.7333
  26   2.0000      -0.718363       -19.5477
  27   2.0000      -0.691358       -18.8128
  28   2.0000      -0.646823       -17.6009
  29   2.0000      -0.608497       -16.5580
  30   2.0000      -0.597391       -16.2558
  31   2.0000      -0.572638       -15.5823
  32   2.0000      -0.563460       -15.3325
  33   2.0000      -0.551527       -15.0078
  34   2.0000      -0.508985       -13.8502
  35   2.0000      -0.490276       -13.3411
  36   2.0000      -0.484384       -13.1808
  37   2.0000      -0.462724       -12.5914
  38   2.0000      -0.456301       -12.4166
  39   2.0000      -0.448045       -12.1919
  40   2.0000      -0.436270       -11.8715
  41   2.0000      -0.434444       -11.8218
  42   2.0000      -0.419802       -11.4234
  43   2.0000      -0.410836       -11.1794
  44   2.0000      -0.405157       -11.0249
  45   2.0000      -0.401734       -10.9318
  46   2.0000      -0.388615       -10.5747
  47   2.0000      -0.380440       -10.3523
  48   2.0000      -0.377203       -10.2642
  49   2.0000      -0.362567        -9.8660
  50   2.0000      -0.358971        -9.7681
  51   2.0000      -0.348723        -9.4892
  52   2.0000      -0.338907        -9.2221
  53   2.0000      -0.332504        -9.0479
  54   2.0000      -0.325018        -8.8442
  55   2.0000      -0.321176        -8.7396
  56   2.0000      -0.310385        -8.4460
  57   2.0000      -0.305280        -8.3071
  58   2.0000      -0.302736        -8.2379
  59   2.0000      -0.264223        -7.1899
  60   2.0000      -0.253703        -6.9036
  61   2.0000      -0.242548        -6.6001
  62   2.0000      -0.239749        -6.5239
  63   2.0000      -0.217285        -5.9126
  64   0.0000      -0.063460        -1.7268
  65   0.0000      -0.038898        -1.0585
  66   0.0000      -0.035330        -0.9614
  67   0.0000      -0.028871        -0.7856
  68   0.0000      -0.004279        -0.1164

MULLIKEN ATOMIC CHARGES
-----------------------
   0 C :   -0.550216
   1 C :    0.009745
   2 H :    0.184045
   3 C :    0.108625
   4 C :   -0.268520
   5 C :   -0.205054
   6 C :    0.070797
   7 C :    0.302895
   8 C :   -0.356395
   9 F :   -0.250765
  10 C :    0.060113
  11 C :   -0.211685
  12 C :   -0.212666
  13 C :   -0.163177
  14 C :   -0.211697
  15 C :   -0.213042
  16 C :    0.351949
  17 O :   -0.480947
  18 O :   -0.357074
  19 H :    0.172496
  20 H :    0.182392
  21 H :    0.175014
  22 H :    0.183694
  23 H :    0.186408
  24 H :    0.208083
  25 H :    0.184582
  26 H :    0.178794
  27 H :    0.180398
  28 H :    0.178625
  29 H :    0.183345
  30 H :    0.379241
Sum of atomic charges:    0.0000000

LOEWDIN ATOMIC CHARGES
----------------------
   0 C :   -0.375143
   1 C :   -0.141191
   2 H :    0.199183
   3 C :   -0.061035
   4 C :   -0.157138
   5 C :   -0.129360
   6 C :   -0.069747
   7 C :    0.231343
   8 C :   -0.134193
   9 F :   -0.299742
  10 C :   -0.074821
  11 C :   -0.149730
  12 C :   -0.167884
  13 C :   -0.171990
  14 C :   -0.168314
  15 C :   -0.146643
  16 C :    0.361799
  17 O :   -0.478307
  18 O :   -0.381025
  19 H :    0.166457
  20 H :    0.170063
  21 H :    0.167118
  22 H :    0.186072
  23 H :    0.189442
  24 H :    0.204787
  25 H :    0.185233
  26 H :    0.179358
  27 H :    0.178287
  28 H :    0.179336
  29 H :    0.185473
  30 H :    0.322309

  Mayer bond orders larger than 0.100000
B(  0-C ,  1-C ) :   0.9085 B(  0-C , 19-H ) :   0.9676 B(  0-C , 20-H ) :   0.9656
B(  0-C , 21-H ) :   0.9684 B(  1-C ,  2-H ) :   0.9604 B(  1-C ,  3-C ) :   0.8200
B(  1-C , 16-C ) :   0.9356 B(  3-C ,  4-C ) :   1.3675 B(  3-C ,  6-C ) :   0.1007
B(  3-C ,  8-C ) :   1.3603 B(  4-C ,  5-C ) :   1.4260 B(  4-C , 22-H ) :   0.9504
B(  5-C ,  6-C ) :   1.3509 B(  5-C , 23-H ) :   0.9429 B(  6-C ,  7-C ) :   1.4187
B(  6-C , 10-C ) :   0.7632 B(  7-C ,  8-C ) :   1.3953 B(  7-C ,  9-F ) :   0.8985
B(  8-C , 24-H ) :   0.9125 B( 10-C , 11-C ) :   1.3701 B( 10-C , 15-C ) :   1.3798
B( 11-C , 12-C ) :   1.4156 B( 11-C , 25-H ) :   0.9457 B( 12-C , 13-C ) :   1.3808
B( 12-C , 26-H ) :   0.9589 B( 13-C , 14-C ) :   1.3791 B( 13-C , 27-H ) :   0.9522
B( 14-C , 15-C ) :   1.4112 B( 14-C , 28-H ) :   0.9594 B( 15-C , 29-H ) :   0.9465
B( 16-C , 17-O ) :   1.8534 B( 16-C , 18-O ) :   1.1022 B( 18-O , 30-H ) :   0.8350

Dispersion correction           -0.013416645
FINAL SINGLE POINT ENERGY      -829.591089774729

DIPOLE MOMENT
-------------

Method             : SCF
Type of density    : Electron Density
Multiplicity       :   1
Irrep              :   0
Energy             :  -829.5882940427076164 Eh
Relativity type    :
Basis              : AO
                                X                 Y                 Z
Electronic contribution:      0.708369812       3.659548201       5.825924683
Nuclear contribution   :     -0.889043554      -5.300411724      -6.259227477
                        -----------------------------------------
Total Dipole Moment    :     -0.180673742      -1.640863523      -0.433302794
                        -----------------------------------------
Magnitude (a.u.)       :      1.706700739
Magnitude (Debye)      :      4.338088525

Rotational constants in cm-1:             0.038426             0.006430             0.006150
Rotational constants in MHz :          1151.973890           192.774075           184.366187

                             ****ORCA TERMINATED NORMALLY****
TOTAL RUN TIME: 0 days 0 hours 1 minutes 43 seconds 827 msec
