                         Program Version 6.0.0  -   RELEASE  -
|  1> ! pbe def2-sv(p) def2/J RI DEFGRID1 loosescf d4 GCP(DFT/SV(P)) printgap
|  2> %output
|  3>     printlevel normal
|  4> end
|  5> * xyz 0 1
|  6> C -4.7339416139 -0.8644266358 0.1786938321
|  7> C -4.0947378683 -2.094097702 0.1013361473
|  8> C -2.7172728441 -2.1530601479 0.0003088035
|  9> C -1.954133376 -0.9874869639 -0.0252248827
| 10> C -2.6002749232 0.2513063224 0.053178031
| 11> C -3.9895481884 0.2996584571 0.1547568292
| 12> C -1.8318050194 1.5024765966 0.030561551
| 13> O -2.3874357261 2.5979727719 0.0958149875
| 14> C -0.3681753728 1.381740922 -0.0737481155
| 15> C 0.3595544234 2.5592040387 -0.0804483287
| 16> C 1.7495935477 2.5294151033 -0.1625974474
| 17> C 2.4094349154 1.3334480161 -0.2515007892
| 18> C 1.7057233937 0.104003775 -0.2677832143
| 19> C 0.2807965473 0.126841024 -0.1629486997
| 20> C -0.4861781283 -1.0987222758 -0.1363804817
| 21> O 0.027079077 -2.2306932609 -0.1988119637
| 22> N 2.3618390533 -1.057622569 -0.3899048411
| 23> C 3.7889403208 -1.216162166 -0.5070359013
| 24> C 4.5583985846 -0.8856894302 0.7993343235
| 25> O 5.3880019704 0.2476050707 0.6744523706
| 26> H -5.8085516609 -0.8154654668 0.2573706401
| 27> H -4.6712472491 -3.0056546919 0.1196740937
| 28> H -2.2011716008 -3.0997185461 -0.061112981
| 29> H -4.4596892021 1.2701910487 0.2136189147
| 30> H -0.1774042404 3.4928698718 -0.0112519345
| 31> H 2.3055884591 3.4536606535 -0.1505745699
| 32> H 3.4859467406 1.32440941 -0.2841474657
| 33> H 1.782210281 -1.8913860848 -0.3289516055
| 34> H 4.1652224923 -0.5667315596 -1.3039115181
| 35> H 3.9690615279 -2.2512231512 -0.7927102573
| 36> H 5.1447466365 -1.7507875456 1.1230985105
| 37> H 3.842940046 -0.6427029309 1.5884026825
| 38> H 6.1639565383 0.0237211709 0.1426110758
| 39> *
| 40>
| 41>                          ****END OF INPUT****

CARTESIAN COORDINATES (ANGSTROEM)
---------------------------------
  C     -4.733942   -0.864427    0.178694
  C     -4.094738   -2.094098    0.101336
  C     -2.717273   -2.153060    0.000309
  C     -1.954133   -0.987487   -0.025225
  C     -2.600275    0.251306    0.053178
  C     -3.989548    0.299658    0.154757
  C     -1.831805    1.502477    0.030562
  O     -2.387436    2.597973    0.095815
  C     -0.368175    1.381741   -0.073748
  C      0.359554    2.559204   -0.080448
  C      1.749594    2.529415   -0.162597
  C      2.409435    1.333448   -0.251501
  C      1.705723    0.104004   -0.267783
  C      0.280797    0.126841   -0.162949
  C     -0.486178   -1.098722   -0.136380
  O      0.027079   -2.230693   -0.198812
  N      2.361839   -1.057623   -0.389905
  C      3.788940   -1.216162   -0.507036
  C      4.558399   -0.885689    0.799334
  O      5.388002    0.247605    0.674452
  H     -5.808552   -0.815465    0.257371
  H     -4.671247   -3.005655    0.119674
  H     -2.201172   -3.099719   -0.061113
  H     -4.459689    1.270191    0.213619
  H     -0.177404    3.492870   -0.011252
  H      2.305588    3.453661   -0.150575
  H      3.485947    1.324409   -0.284147
  H      1.782210   -1.891386   -0.328952
  H      4.165222   -0.566732   -1.303912
  H      3.969062   -2.251223   -0.792710
  H      5.144747   -1.750788    1.123099
  H      3.842940   -0.642703    1.588403
  H      6.163957    0.023721    0.142611

 Total Charge           Charge          ....    0
 Multiplicity           Mult            ....    1
 Number of Electrons    NEL             ....  140
 Basis Dimension        Dim             ....  306

ORBITAL ENERGIES
----------------

  NO   OCC          E(Eh)            E(eV)
   0   2.0000     -18.764882      -510.6184
   1   2.0000     -18.745592      -510.0935
   2   2.0000     -18.738738      -509.9070
   3   2.0000     -14.015717      -381.3871
   4   2.0000      -9.974075      -271.4084
   5   2.0000      -9.970288      -271.3053
   6   2.0000      -9.953714      -270.8543
   7   2.0000      -9.948113      -270.7019
   8   2.0000      -9.937738      -270.4196
   9   2.0000      -9.910487      -269.6781
  10   2.0000      -9.908100      -269.6131
  11   2.0000      -9.907768      -269.6041
  12   2.0000      -9.907617      -269.6000
  13   2.0000      -9.906134      -269.5596
  14   2.0000      -9.905357      -269.5385
  15   2.0000      -9.903591      -269.4904
  16   2.0000      -9.901991      -269.4469
  17   2.0000      -9.901397      -269.4307
  18   2.0000      -9.897572      -269.3266
  19   2.0000      -9.890948      -269.1464
  20   2.0000      -0.941109       -25.6089
  21   2.0000      -0.937237       -25.5035
  22   2.0000      -0.931053       -25.3352
  23   2.0000      -0.870396       -23.6847
  24   2.0000      -0.793767       -21.5995
  25   2.0000      -0.777606       -21.1597
  26   2.0000      -0.720970       -19.6186
  27   2.0000      -0.700560       -19.0632
  28   2.0000      -0.685110       -18.6428
  29   2.0000      -0.679310       -18.4850
  30   2.0000      -0.653346       -17.7784
  31   2.0000      -0.605654       -16.4807
  32   2.0000      -0.595924       -16.2159
  33   2.0000      -0.578497       -15.7417
  34   2.0000      -0.570791       -15.5320
  35   2.0000      -0.533920       -14.5287
  36   2.0000      -0.520763       -14.1707
  37   2.0000      -0.494988       -13.4693
  38   2.0000      -0.491803       -13.3827
  39   2.0000      -0.476232       -12.9589
  40   2.0000      -0.461861       -12.5679
  41   2.0000      -0.442931       -12.0528
  42   2.0000      -0.431684       -11.7467
  43   2.0000      -0.425415       -11.5761
  44   2.0000      -0.415229       -11.2990
  45   2.0000      -0.413849       -11.2614
  46   2.0000      -0.405839       -11.0434
  47   2.0000      -0.394939       -10.7468
  48   2.0000      -0.385459       -10.4889
  49   2.0000      -0.382100       -10.3975
  50   2.0000      -0.375276       -10.2118
  51   2.0000      -0.373479       -10.1629
  52   2.0000      -0.365311        -9.9406
  53   2.0000      -0.360430        -9.8078
  54   2.0000      -0.354238        -9.6393
  55   2.0000      -0.344992        -9.3877
  56   2.0000      -0.334440        -9.1006
  57   2.0000      -0.326319        -8.8796
  58   2.0000      -0.318632        -8.6704
  59   2.0000      -0.312300        -8.4981
  60   2.0000      -0.304884        -8.2963
  61   2.0000      -0.291258        -7.9255
  62   2.0000      -0.282433        -7.6854
  63   2.0000      -0.245708        -6.6860
  64   2.0000      -0.240089        -6.5332
  65   2.0000      -0.237991        -6.4761
  66   2.0000      -0.237561        -6.4644
  67   2.0000      -0.214533        -5.8377
  68   2.0000      -0.201826        -5.4920
  69   2.0000      -0.184395        -5.0176
  70   0.0000      -0.122605        -3.3362
  71   0.0000      -0.075368        -2.0509
  72   0.0000      -0.047809        -1.3009
  73   0.0000      -0.027806        -0.7566
  74   0.0000       0.009956         0.2709

MULLIKEN ATOMIC CHARGES
-----------------------
   0 C :   -0.021206
   1 C :   -0.017023
   2 C :   -0.134043
   3 C :    0.051216
   4 C :    0.037923
   5 C :   -0.126280
   6 C :    0.084450
   7 O :   -0.152302
   8 C :    0.017917
   9 C :   -0.137582
  10 C :   -0.010200
  11 C :   -0.164114
  12 C :    0.066660
  13 C :    0.053179
  14 C :    0.071046
  15 O :   -0.221971
  16 N :   -0.233514
  17 C :   -0.074781
  18 C :   -0.015431
  19 O :   -0.424724
  20 H :    0.061548
  21 H :    0.061023
  22 H :    0.057215
  23 H :    0.057512
  24 H :    0.053901
  25 H :    0.059084
  26 H :    0.049587
  27 H :    0.242903
  28 H :    0.098890
  29 H :    0.098240
  30 H :    0.089768
  31 H :    0.119848
  32 H :    0.301261
Sum of atomic charges:   -0.0000000

LOEWDIN ATOMIC CHARGES
----------------------
   0 C :   -0.108550
   1 C :   -0.106053
   2 C :   -0.089293
   3 C :   -0.044635
   4 C :   -0.053107
   5 C :   -0.083561
   6 C :    0.058144
   7 O :   -0.133004
   8 C :   -0.046478
   9 C :   -0.110152
  10 C :   -0.095464
  11 C :   -0.148124
  12 C :    0.031489
  13 C :   -0.090445
  14 C :    0.056159
  15 O :   -0.180148
  16 N :   -0.131697
  17 C :   -0.181480
  18 C :   -0.137991
  19 O :   -0.327513
  20 H :    0.128261
  21 H :    0.128010
  22 H :    0.134321
  23 H :    0.135566
  24 H :    0.134171
  25 H :    0.129922
  26 H :    0.131175
  27 H :    0.241380
  28 H :    0.119120
  29 H :    0.125908
  30 H :    0.104959
  31 H :    0.123766
  32 H :    0.285342

  Mayer bond orders larger than 0.100000
B(  0-C ,  1-C ) :   1.3273 B(  0-C ,  5-C ) :   1.3362 B(  0-C , 20-H ) :   0.9669
B(  1-C ,  2-C ) :   1.3356 B(  1-C , 21-H ) :   0.9666 B(  2-C ,  3-C ) :   1.3809
B(  2-C , 22-H ) :   0.9543 B(  3-C ,  4-C ) :   1.3354 B(  3-C , 14-C ) :   0.9784
B(  4-C ,  5-C ) :   1.3790 B(  4-C ,  6-C ) :   0.9556 B(  5-C , 23-H ) :   0.9565
B(  6-C ,  7-O ) :   2.1537 B(  6-C ,  8-C ) :   0.9513 B(  8-C ,  9-C ) :   1.4271
B(  8-C , 13-C ) :   1.3001 B(  9-C , 10-C ) :   1.2272 B(  9-C , 24-H ) :   0.9566
B( 10-C , 11-C ) :   1.3826 B( 10-C , 25-H ) :   0.9669 B( 11-C , 12-C ) :   1.2493
B( 11-C , 26-H ) :   0.9324 B( 12-C , 13-C ) :   1.2149 B( 12-C , 16-N ) :   1.3799
B( 13-C , 14-C ) :   1.0272 B( 14-C , 15-O ) :   1.9601 B( 15-O , 27-H ) :   0.1442
B( 16-N , 17-C ) :   1.0492 B( 16-N , 27-H ) :   0.7689 B( 17-C , 18-C ) :   1.0329
B( 17-C , 28-H ) :   0.9214 B( 17-C , 29-H ) :   0.9231 B( 18-C , 19-O ) :   1.0514
B( 18-C , 30-H ) :   0.9314 B( 18-C , 31-H ) :   0.9396 B( 19-O , 32-H ) :   0.8511

Dispersion correction           -0.046818297
FINAL SINGLE POINT ENERGY      -896.118806797295

DIPOLE MOMENT
-------------

Method             : SCF
Type of density    : Electron Density
Multiplicity       :   1
Irrep              :   0
Energy             :  -896.2163045110287385 Eh
Relativity type    :
Basis              : AO
                                X                 Y                 Z
Electronic contribution:    -11.381880784       3.108301678      -0.755088104
Nuclear contribution   :     12.762161543      -4.179841740       0.486772604
                        -----------------------------------------
Total Dipole Moment    :      1.380280759      -1.071540062      -0.268315500
                        -----------------------------------------
Magnitude (a.u.)       :      1.767870551
Magnitude (Debye)      :      4.493569831

Rotational constants in cm-1:             0.024421             0.007106             0.005617
Rotational constants in MHz :           732.135768           213.043775           168.404426

                             ****ORCA TERMINATED NORMALLY****
TOTAL RUN TIME: 0 days 0 hours 0 minutes 33 seconds 947 msec
