                         Program Version 6.0.0  -   RELEASE  -
|  1> ! pbe def2-sv(p) def2/J RI DEFGRID1 loosescf d4 GCP(DFT/SV(P)) printgap
|  2> %output
|  3>     printlevel normal
|  4> end
|  5> * xyz 0 1
|  6> C 1.9486995196 -0.7165479326 0.1467976443
|  7> C 1.1250524741 0.3482393971 -0.5690602226
|  8> C 0.0254614368 0.9496281581 0.3091614234
|  9> C -1.1124636187 -0.0252971197 0.6549197461
| 10> N -1.9119368267 -0.4859076619 -0.469730933
| 11> H 2.7550535533 -1.0625468359 -0.495575189
| 12> H 2.3839713795 -0.3096560113 1.0567962411
| 13> H 1.3358718707 -1.5739350835 0.4128734838
| 14> H 1.7901531413 1.1549264201 -0.8864224824
| 15> H 0.6840120905 -0.0798065733 -1.4729118496
| 16> H 0.4681007549 1.3058836581 1.2413296225
| 17> H -0.4050164956 1.8137099656 -0.205514595
| 18> H -1.7939295362 0.4697122687 1.3532010277
| 19> H -0.7090597124 -0.908017072 1.1555402718
| 20> H -1.3258465367 -0.9977396373 -1.1206202466
| 21> H -2.2891012005 0.3140455108 -0.9676603069
| 22> *
| 23>
| 24>                          ****END OF INPUT****

CARTESIAN COORDINATES (ANGSTROEM)
---------------------------------
  C      1.948700   -0.716548    0.146798
  C      1.125052    0.348239   -0.569060
  C      0.025461    0.949628    0.309161
  C     -1.112464   -0.025297    0.654920
  N     -1.911937   -0.485908   -0.469731
  H      2.755054   -1.062547   -0.495575
  H      2.383971   -0.309656    1.056796
  H      1.335872   -1.573935    0.412873
  H      1.790153    1.154926   -0.886422
  H      0.684012   -0.079807   -1.472912
  H      0.468101    1.305884    1.241330
  H     -0.405016    1.813710   -0.205515
  H     -1.793930    0.469712    1.353201
  H     -0.709060   -0.908017    1.155540
  H     -1.325847   -0.997740   -1.120620
  H     -2.289101    0.314046   -0.967660

 Total Charge           Charge          ....    0
 Multiplicity           Mult            ....    1
 Number of Electrons    NEL             ....   42
 Basis Dimension        Dim             ....   92

ORBITAL ENERGIES
----------------

  NO   OCC          E(Eh)            E(eV)
   0   2.0000     -13.955263      -379.7420
   1   2.0000      -9.902390      -269.4577
   2   2.0000      -9.885470      -268.9973
   3   2.0000      -9.879625      -268.8383
   4   2.0000      -9.874779      -268.7064
   5   2.0000      -0.792824       -21.5738
   6   2.0000      -0.705617       -19.2008
   7   2.0000      -0.628864       -17.1122
   8   2.0000      -0.564811       -15.3693
   9   2.0000      -0.502652       -13.6779
  10   2.0000      -0.447544       -12.1783
  11   2.0000      -0.412034       -11.2120
  12   2.0000      -0.394904       -10.7459
  13   2.0000      -0.381497       -10.3811
  14   2.0000      -0.346871        -9.4388
  15   2.0000      -0.337524        -9.1845
  16   2.0000      -0.325431        -8.8554
  17   2.0000      -0.293492        -7.9863
  18   2.0000      -0.286675        -7.8008
  19   2.0000      -0.279962        -7.6182
  20   2.0000      -0.180501        -4.9117
  21   0.0000       0.025256         0.6872
  22   0.0000       0.058729         1.5981
  23   0.0000       0.060894         1.6570
  24   0.0000       0.074653         2.0314
  25   0.0000       0.098872         2.6905

MULLIKEN ATOMIC CHARGES
-----------------------
   0 C :   -0.289468
   1 C :   -0.188012
   2 C :   -0.167957
   3 C :   -0.094323
   4 N :   -0.449788
   5 H :    0.103812
   6 H :    0.099707
   7 H :    0.105817
   8 H :    0.088338
   9 H :    0.066370
  10 H :    0.074933
  11 H :    0.073345
  12 H :    0.086384
  13 H :    0.090529
  14 H :    0.202921
  15 H :    0.197393
Sum of atomic charges:    0.0000000

LOEWDIN ATOMIC CHARGES
----------------------
   0 C :   -0.343226
   1 C :   -0.239971
   2 C :   -0.251025
   3 C :   -0.182968
   4 N :   -0.405912
   5 H :    0.120087
   6 H :    0.118088
   7 H :    0.115749
   8 H :    0.117351
   9 H :    0.102815
  10 H :    0.114797
  11 H :    0.109604
  12 H :    0.112377
  13 H :    0.111181
  14 H :    0.200181
  15 H :    0.200874

  Mayer bond orders larger than 0.100000
B(  0-C ,  1-C ) :   1.1500 B(  0-C ,  5-H ) :   0.9516 B(  0-C ,  6-H ) :   0.9547
B(  0-C ,  7-H ) :   0.9515 B(  1-C ,  2-C ) :   1.1155 B(  1-C ,  8-H ) :   0.9275
B(  1-C ,  9-H ) :   0.9166 B(  2-C ,  3-C ) :   1.0838 B(  2-C , 10-H ) :   0.9088
B(  2-C , 11-H ) :   0.9205 B(  3-C ,  4-N ) :   1.1440 B(  3-C , 12-H ) :   0.9321
B(  3-C , 13-H ) :   0.9305 B(  4-N , 14-H ) :   0.9098 B(  4-N , 15-H ) :   0.9101

Dispersion correction           -0.010528549
FINAL SINGLE POINT ENERGY      -213.245285752679

DIPOLE MOMENT
-------------

Method             : SCF
Type of density    : Electron Density
Multiplicity       :   1
Irrep              :   0
Energy             :  -213.3055539336064328 Eh
Relativity type    :
Basis              : AO
                                X                 Y                 Z
Electronic contribution:     -2.343809416       0.180309532      -0.304971992
Nuclear contribution   :      2.704790660       0.116094258       0.064076525
                        -----------------------------------------
Total Dipole Moment    :      0.360981244       0.296403790      -0.240895468
                        -----------------------------------------
Magnitude (a.u.)       :      0.525540951
Magnitude (Debye)      :      1.335818939

Rotational constants in cm-1:             0.285368             0.093116             0.087794
Rotational constants in MHz :          8555.117264          2791.540999          2631.986579

                             ****ORCA TERMINATED NORMALLY****
TOTAL RUN TIME: 0 days 0 hours 0 minutes 7 seconds 337 msec
