                         Program Version 6.0.0  -   RELEASE  -
|  1> ! pbe def2-sv(p) def2/J RI DEFGRID1 loosescf d4 GCP(DFT/SV(P)) printgap
|  2> %output
|  3>     printlevel normal
|  4> end
|  5> * xyz 0 1
|  6> C -3.822258295 -0.5424243098 -0.2753700161
|  7> C -2.6874233799 0.1020423854 0.5117121408
|  8> C -1.3354048791 -0.1462934354 -0.1522925489
|  9> C -0.1881780926 0.4862871078 0.6435301364
| 10> C 1.1133422577 0.3263401962 -0.0952691609
| 11> O 1.329536739 0.7232841807 -1.2212491699
| 12> O 2.0166672923 -0.3246503912 0.6291486694
| 13> C 3.3002714051 -0.5526937569 0.0401249772
| 14> H -3.8620193764 -0.1389374609 -1.2845140112
| 15> H -3.6768097746 -1.618032198 -0.3430201233
| 16> H -4.7767228669 -0.3537890912 0.2090717276
| 17> H -2.8611780858 1.1771713736 0.5847240783
| 18> H -2.6710830442 -0.3038960238 1.5248299027
| 19> H -1.3340843003 0.2730353205 -1.1607361959
| 20> H -1.1642445307 -1.2214885963 -0.2384789285
| 21> H -0.0937712382 0.0286368283 1.6272580601
| 22> H -0.3799630124 1.554897468 0.7566188685
| 23> H 3.7931979043 0.3999634026 -0.1563607426
| 24> H 3.1878513119 -1.0942972521 -0.8997148712
| 25> H 3.8560620443 -1.1374393231 0.7660049543
| 26> *
| 27>
| 28>                          ****END OF INPUT****

CARTESIAN COORDINATES (ANGSTROEM)
---------------------------------
  C     -3.822258   -0.542424   -0.275370
  C     -2.687423    0.102042    0.511712
  C     -1.335405   -0.146293   -0.152293
  C     -0.188178    0.486287    0.643530
  C      1.113342    0.326340   -0.095269
  O      1.329537    0.723284   -1.221249
  O      2.016667   -0.324650    0.629149
  C      3.300271   -0.552694    0.040125
  H     -3.862019   -0.138937   -1.284514
  H     -3.676810   -1.618032   -0.343020
  H     -4.776723   -0.353789    0.209072
  H     -2.861178    1.177171    0.584724
  H     -2.671083   -0.303896    1.524830
  H     -1.334084    0.273035   -1.160736
  H     -1.164245   -1.221489   -0.238479
  H     -0.093771    0.028637    1.627258
  H     -0.379963    1.554897    0.756619
  H      3.793198    0.399963   -0.156361
  H      3.187851   -1.094297   -0.899715
  H      3.856062   -1.137439    0.766005

 Total Charge           Charge          ....    0
 Multiplicity           Mult            ....    1
 Number of Electrons    NEL             ....   64
 Basis Dimension        Dim             ....  136

ORBITAL ENERGIES
----------------

  NO   OCC          E(Eh)            E(eV)
   0   2.0000     -18.799143      -511.5507
   1   2.0000     -18.730314      -509.6778
   2   2.0000     -10.003091      -272.1980
   3   2.0000      -9.941097      -270.5110
   4   2.0000      -9.896301      -269.2921
   5   2.0000      -9.890114      -269.1237
   6   2.0000      -9.887001      -269.0390
   7   2.0000      -9.875902      -268.7370
   8   2.0000      -1.004511       -27.3341
   9   2.0000      -0.907177       -24.6855
  10   2.0000      -0.730837       -19.8871
  11   2.0000      -0.686568       -18.6825
  12   2.0000      -0.646692       -17.5974
  13   2.0000      -0.577654       -15.7188
  14   2.0000      -0.521936       -14.2026
  15   2.0000      -0.504525       -13.7288
  16   2.0000      -0.443807       -12.0766
  17   2.0000      -0.438659       -11.9365
  18   2.0000      -0.428713       -11.6659
  19   2.0000      -0.409613       -11.1461
  20   2.0000      -0.389036       -10.5862
  21   2.0000      -0.371854       -10.1187
  22   2.0000      -0.370641       -10.0857
  23   2.0000      -0.350072        -9.5259
  24   2.0000      -0.333559        -9.0766
  25   2.0000      -0.313743        -8.5374
  26   2.0000      -0.305642        -8.3169
  27   2.0000      -0.297285        -8.0895
  28   2.0000      -0.288773        -7.8579
  29   2.0000      -0.286634        -7.7997
  30   2.0000      -0.256791        -6.9876
  31   2.0000      -0.216349        -5.8872
  32   0.0000      -0.018790        -0.5113
  33   0.0000       0.039302         1.0695
  34   0.0000       0.055028         1.4974
  35   0.0000       0.067080         1.8253
  36   0.0000       0.070562         1.9201

MULLIKEN ATOMIC CHARGES
-----------------------
   0 C :   -0.257267
   1 C :   -0.169023
   2 C :   -0.230571
   3 C :   -0.107006
   4 C :    0.105444
   5 O :   -0.214435
   6 O :   -0.235643
   7 C :   -0.108989
   8 H :    0.100361
   9 H :    0.097817
  10 H :    0.102753
  11 H :    0.084962
  12 H :    0.083328
  13 H :    0.104799
  14 H :    0.088760
  15 H :    0.091474
  16 H :    0.104398
  17 H :    0.118387
  18 H :    0.119611
  19 H :    0.120842
Sum of atomic charges:   -0.0000000

LOEWDIN ATOMIC CHARGES
----------------------
   0 C :   -0.338931
   1 C :   -0.233712
   2 C :   -0.219618
   3 C :   -0.243943
   4 C :    0.035188
   5 O :   -0.172314
   6 O :   -0.073863
   7 C :   -0.204119
   8 H :    0.118501
   9 H :    0.117286
  10 H :    0.119274
  11 H :    0.115295
  12 H :    0.114095
  13 H :    0.123281
  14 H :    0.117196
  15 H :    0.127210
  16 H :    0.139515
  17 H :    0.119710
  18 H :    0.119745
  19 H :    0.120203

  Mayer bond orders larger than 0.100000
B(  0-C ,  1-C ) :   1.1601 B(  0-C ,  8-H ) :   0.9542 B(  0-C ,  9-H ) :   0.9544
B(  0-C , 10-H ) :   0.9527 B(  1-C ,  2-C ) :   1.1359 B(  1-C , 11-H ) :   0.9251
B(  1-C , 12-H ) :   0.9238 B(  2-C ,  3-C ) :   1.1268 B(  2-C , 13-H ) :   0.9167
B(  2-C , 14-H ) :   0.9266 B(  3-C ,  4-C ) :   1.0216 B(  3-C , 15-H ) :   0.9054
B(  3-C , 16-H ) :   0.8883 B(  4-C ,  5-O ) :   2.0494 B(  4-C ,  6-O ) :   1.2259
B(  6-O ,  7-C ) :   0.9390 B(  7-C , 17-H ) :   0.9529 B(  7-C , 18-H ) :   0.9508
B(  7-C , 19-H ) :   0.9593

Dispersion correction           -0.014437550
FINAL SINGLE POINT ENERGY      -385.453210468204

DIPOLE MOMENT
-------------

Method             : SCF
Type of density    : Electron Density
Multiplicity       :   1
Irrep              :   0
Energy             :  -385.5282580793523834 Eh
Relativity type    :
Basis              : AO
                                X                 Y                 Z
Electronic contribution:      9.423132058       1.944372877      -0.721663687
Nuclear contribution   :     -9.315879584      -2.277751434       1.291221617
                        -----------------------------------------
Total Dipole Moment    :      0.107252473      -0.333378557       0.569557930
                        -----------------------------------------
Magnitude (a.u.)       :      0.668610941
Magnitude (Debye)      :      1.699473953

Rotational constants in cm-1:             0.203870             0.025461             0.024513
Rotational constants in MHz :          6111.878210           763.298197           734.884438

                             ****ORCA TERMINATED NORMALLY****
TOTAL RUN TIME: 0 days 0 hours 0 minutes 10 seconds 533 msec
