                         Program Version 6.0.0  -   RELEASE  -
|  1> ! pbe def2-sv(p) def2/J RI DEFGRID1 loosescf d4 GCP(DFT/SV(P)) printgap
|  2> %output
|  3>     printlevel normal
|  4> end
|  5> * xyz 0 1
|  6> C 2.3918222763 -0.3790312732 0.3697853751
|  7> C 1.3294765849 0.5056305333 -0.2733228915
|  8> C -0.0041162744 -0.2333884746 -0.4722067051
|  9> C -1.1633356302 0.4482283959 0.2531683422
| 10> N -2.3828323859 -0.3366773137 0.105734136
| 11> H 2.5968141149 -1.2439819973 -0.2565741443
| 12> H 3.3180164493 0.1747799075 0.5050568806
| 13> H 2.0549234206 -0.7296092821 1.3423816036
| 14> H 1.1685374877 1.3808918335 0.3596305665
| 15> H 1.7019484911 0.8663654946 -1.2334308753
| 16> H -0.2479723829 -0.297786034 -1.5344782245
| 17> H 0.0724229667 -1.2535218073 -0.0954025839
| 18> H -1.2675903194 1.4810863459 -0.1247415531
| 19> H -0.9389512178 0.5057227099 1.3223307149
| 20> H -2.6291003901 -0.3984129831 -0.8768496707
| 21> H -3.1488595296 0.1243597714 0.5834182556
| 22> *
| 23>
| 24>                          ****END OF INPUT****

CARTESIAN COORDINATES (ANGSTROEM)
---------------------------------
  C      2.391822   -0.379031    0.369785
  C      1.329477    0.505631   -0.273323
  C     -0.004116   -0.233388   -0.472207
  C     -1.163336    0.448228    0.253168
  N     -2.382832   -0.336677    0.105734
  H      2.596814   -1.243982   -0.256574
  H      3.318016    0.174780    0.505057
  H      2.054923   -0.729609    1.342382
  H      1.168537    1.380892    0.359631
  H      1.701948    0.866365   -1.233431
  H     -0.247972   -0.297786   -1.534478
  H      0.072423   -1.253522   -0.095403
  H     -1.267590    1.481086   -0.124742
  H     -0.938951    0.505723    1.322331
  H     -2.629100   -0.398413   -0.876850
  H     -3.148860    0.124360    0.583418

 Total Charge           Charge          ....    0
 Multiplicity           Mult            ....    1
 Number of Electrons    NEL             ....   42
 Basis Dimension        Dim             ....   92

ORBITAL ENERGIES
----------------

  NO   OCC          E(Eh)            E(eV)
   0   2.0000     -13.952794      -379.6748
   1   2.0000      -9.902964      -269.4733
   2   2.0000      -9.880191      -268.8537
   3   2.0000      -9.875572      -268.7280
   4   2.0000      -9.869921      -268.5742
   5   2.0000      -0.789540       -21.4845
   6   2.0000      -0.703795       -19.1512
   7   2.0000      -0.627803       -17.0834
   8   2.0000      -0.546670       -14.8756
   9   2.0000      -0.511284       -13.9127
  10   2.0000      -0.435034       -11.8379
  11   2.0000      -0.409111       -11.1325
  12   2.0000      -0.403368       -10.9762
  13   2.0000      -0.373216       -10.1557
  14   2.0000      -0.353079        -9.6078
  15   2.0000      -0.330824        -9.0022
  16   2.0000      -0.311627        -8.4798
  17   2.0000      -0.288524        -7.8511
  18   2.0000      -0.281626        -7.6634
  19   2.0000      -0.275425        -7.4947
  20   2.0000      -0.178320        -4.8523
  21   0.0000       0.036852         1.0028
  22   0.0000       0.047688         1.2977
  23   0.0000       0.068230         1.8566
  24   0.0000       0.081024         2.2048
  25   0.0000       0.094890         2.5821

MULLIKEN ATOMIC CHARGES
-----------------------
   0 C :   -0.295900
   1 C :   -0.169665
   2 C :   -0.170015
   3 C :   -0.103239
   4 N :   -0.453811
   5 H :    0.104573
   6 H :    0.099431
   7 H :    0.104277
   8 H :    0.085767
   9 H :    0.083594
  10 H :    0.074643
  11 H :    0.092638
  12 H :    0.068008
  13 H :    0.081257
  14 H :    0.198584
  15 H :    0.199858
Sum of atomic charges:   -0.0000000

LOEWDIN ATOMIC CHARGES
----------------------
   0 C :   -0.340318
   1 C :   -0.234897
   2 C :   -0.236325
   3 C :   -0.177423
   4 N :   -0.419382
   5 H :    0.117045
   6 H :    0.116268
   7 H :    0.117017
   8 H :    0.113872
   9 H :    0.115552
  10 H :    0.111512
  11 H :    0.119086
  12 H :    0.086567
  13 H :    0.108967
  14 H :    0.199762
  15 H :    0.202697

  Mayer bond orders larger than 0.100000
B(  0-C ,  1-C ) :   1.1593 B(  0-C ,  5-H ) :   0.9560 B(  0-C ,  6-H ) :   0.9529
B(  0-C ,  7-H ) :   0.9553 B(  1-C ,  2-C ) :   1.0802 B(  1-C ,  8-H ) :   0.9350
B(  1-C ,  9-H ) :   0.9292 B(  2-C ,  3-C ) :   1.1402 B(  2-C , 10-H ) :   0.9263
B(  2-C , 11-H ) :   0.9300 B(  3-C ,  4-N ) :   1.1071 B(  3-C , 12-H ) :   0.9196
B(  3-C , 13-H ) :   0.9256 B(  4-N , 14-H ) :   0.9039 B(  4-N , 15-H ) :   0.9050

Dispersion correction           -0.009822251
FINAL SINGLE POINT ENERGY      -213.240489692701

DIPOLE MOMENT
-------------

Method             : SCF
Type of density    : Electron Density
Multiplicity       :   1
Irrep              :   0
Energy             :  -213.3008005411548140 Eh
Relativity type    :
Basis              : AO
                                X                 Y                 Z
Electronic contribution:     -2.677355965      -0.122565662      -0.210289158
Nuclear contribution   :      2.501431845       0.570339813      -0.007545813
                        -----------------------------------------
Total Dipole Moment    :     -0.175924120       0.447774151      -0.217834971
                        -----------------------------------------
Magnitude (a.u.)       :      0.528112735
Magnitude (Debye)      :      1.342355893

Rotational constants in cm-1:             0.498820             0.068317             0.067302
Rotational constants in MHz :         14954.254543          2048.095490          2017.649592

                             ****ORCA TERMINATED NORMALLY****
TOTAL RUN TIME: 0 days 0 hours 0 minutes 6 seconds 599 msec
