                         Program Version 6.0.0  -   RELEASE  -
|  1> ! pbe def2-sv(p) def2/J RI DEFGRID1 loosescf d4 GCP(DFT/SV(P)) printgap
|  2> %output
|  3>     printlevel normal
|  4> end
|  5> * xyz 0 1
|  6> C -2.2910582265 -1.2469930264 0.5839651384
|  7> C -1.9737996672 -0.3137267452 -0.5794268554
|  8> C -1.5659912202 1.0922545211 -0.1360772839
|  9> C -0.2971332192 1.113888291 0.7270094255
| 10> C 0.8582445767 0.5075101072 -0.0234568448
| 11> O 1.347021141 0.9583717584 -1.0384398756
| 12> O 1.2909151945 -0.6084910351 0.5547572758
| 13> C 2.3822656099 -1.2951448208 -0.0622721302
| 14> H -2.6896435836 -2.1868256598 0.2101971369
| 15> H -1.397436804 -1.4662692827 1.1622618971
| 16> H -3.0319374708 -0.7958922316 1.2396612765
| 17> H -1.1744377374 -0.7456544202 -1.1874278274
| 18> H -2.8559248526 -0.2251248996 -1.2171393727
| 19> H -2.3787833234 1.5432315769 0.4344770962
| 20> H -1.3889693196 1.7028054103 -1.0238670912
| 21> H -0.4431150776 0.5629337434 1.6535704231
| 22> H -0.0440304331 2.1501320674 0.9540651039
| 23> H 2.629151095 -2.1148846774 0.6047651857
| 24> H 3.2281457099 -0.6176035871 -0.1840848847
| 25> H 2.081984621 -1.6661368974 -1.0430194355
| 26> *
| 27>
| 28>                          ****END OF INPUT****

CARTESIAN COORDINATES (ANGSTROEM)
---------------------------------
  C     -2.291058   -1.246993    0.583965
  C     -1.973800   -0.313727   -0.579427
  C     -1.565991    1.092255   -0.136077
  C     -0.297133    1.113888    0.727009
  C      0.858245    0.507510   -0.023457
  O      1.347021    0.958372   -1.038440
  O      1.290915   -0.608491    0.554757
  C      2.382266   -1.295145   -0.062272
  H     -2.689644   -2.186826    0.210197
  H     -1.397437   -1.466269    1.162262
  H     -3.031937   -0.795892    1.239661
  H     -1.174438   -0.745654   -1.187428
  H     -2.855925   -0.225125   -1.217139
  H     -2.378783    1.543232    0.434477
  H     -1.388969    1.702805   -1.023867
  H     -0.443115    0.562934    1.653570
  H     -0.044030    2.150132    0.954065
  H      2.629151   -2.114885    0.604765
  H      3.228146   -0.617604   -0.184085
  H      2.081985   -1.666137   -1.043019

 Total Charge           Charge          ....    0
 Multiplicity           Mult            ....    1
 Number of Electrons    NEL             ....   64
 Basis Dimension        Dim             ....  136

ORBITAL ENERGIES
----------------

  NO   OCC          E(Eh)            E(eV)
   0   2.0000     -18.801596      -511.6174
   1   2.0000     -18.731733      -509.7164
   2   2.0000     -10.004509      -272.2365
   3   2.0000      -9.942475      -270.5485
   4   2.0000      -9.895850      -269.2798
   5   2.0000      -9.891211      -269.1535
   6   2.0000      -9.886023      -269.0124
   7   2.0000      -9.874926      -268.7104
   8   2.0000      -1.006330       -27.3836
   9   2.0000      -0.908621       -24.7248
  10   2.0000      -0.732646       -19.9363
  11   2.0000      -0.682463       -18.5708
  12   2.0000      -0.645990       -17.5783
  13   2.0000      -0.585107       -15.9216
  14   2.0000      -0.524352       -14.2683
  15   2.0000      -0.497004       -13.5242
  16   2.0000      -0.448730       -12.2106
  17   2.0000      -0.437315       -11.9000
  18   2.0000      -0.425392       -11.5755
  19   2.0000      -0.410450       -11.1689
  20   2.0000      -0.396963       -10.8019
  21   2.0000      -0.372057       -10.1242
  22   2.0000      -0.360977        -9.8227
  23   2.0000      -0.347052        -9.4438
  24   2.0000      -0.341518        -9.2932
  25   2.0000      -0.326057        -8.8725
  26   2.0000      -0.303134        -8.2487
  27   2.0000      -0.291758        -7.9391
  28   2.0000      -0.286491        -7.7958
  29   2.0000      -0.285197        -7.7606
  30   2.0000      -0.258702        -7.0396
  31   2.0000      -0.217388        -5.9154
  32   0.0000      -0.021287        -0.5793
  33   0.0000       0.034983         0.9519
  34   0.0000       0.055000         1.4966
  35   0.0000       0.070259         1.9119
  36   0.0000       0.078332         2.1315

MULLIKEN ATOMIC CHARGES
-----------------------
   0 C :   -0.294676
   1 C :   -0.190884
   2 C :   -0.183485
   3 C :   -0.123232
   4 C :    0.083955
   5 O :   -0.211143
   6 O :   -0.239377
   7 C :   -0.111796
   8 H :    0.103131
   9 H :    0.111079
  10 H :    0.097315
  11 H :    0.103701
  12 H :    0.089948
  13 H :    0.089969
  14 H :    0.102813
  15 H :    0.100930
  16 H :    0.110409
  17 H :    0.121436
  18 H :    0.120823
  19 H :    0.119081
Sum of atomic charges:    0.0000000

LOEWDIN ATOMIC CHARGES
----------------------
   0 C :   -0.346140
   1 C :   -0.237730
   2 C :   -0.217687
   3 C :   -0.247543
   4 C :    0.035359
   5 O :   -0.171372
   6 O :   -0.072002
   7 C :   -0.204507
   8 H :    0.120475
   9 H :    0.117370
  10 H :    0.116473
  11 H :    0.117345
  12 H :    0.118443
  13 H :    0.117681
  14 H :    0.124235
  15 H :    0.127871
  16 H :    0.141723
  17 H :    0.120497
  18 H :    0.120546
  19 H :    0.118961

  Mayer bond orders larger than 0.100000
B(  0-C ,  1-C ) :   1.1523 B(  0-C ,  8-H ) :   0.9513 B(  0-C ,  9-H ) :   0.9455
B(  0-C , 10-H ) :   0.9551 B(  1-C ,  2-C ) :   1.1356 B(  1-C , 11-H ) :   0.9141
B(  1-C , 12-H ) :   0.9250 B(  2-C ,  3-C ) :   1.1109 B(  2-C , 13-H ) :   0.9236
B(  2-C , 14-H ) :   0.9178 B(  3-C ,  4-C ) :   1.0231 B(  3-C , 15-H ) :   0.9032
B(  3-C , 16-H ) :   0.8942 B(  4-C ,  5-O ) :   2.0539 B(  4-C ,  6-O ) :   1.2015
B(  6-O ,  7-C ) :   0.9399 B(  7-C , 17-H ) :   0.9592 B(  7-C , 18-H ) :   0.9497
B(  7-C , 19-H ) :   0.9533

Dispersion correction           -0.016000791
FINAL SINGLE POINT ENERGY      -385.452829229922

DIPOLE MOMENT
-------------

Method             : SCF
Type of density    : Electron Density
Multiplicity       :   1
Irrep              :   0
Energy             :  -385.5276217136920991 Eh
Relativity type    :
Basis              : AO
                                X                 Y                 Z
Electronic contribution:      6.870809674       3.124568823      -1.045736537
Nuclear contribution   :     -6.964295997      -3.615468198       1.497140187
                        -----------------------------------------
Total Dipole Moment    :     -0.093486323      -0.490899375       0.451403650
                        -----------------------------------------
Magnitude (a.u.)       :      0.673414541
Magnitude (Debye)      :      1.711683734

Rotational constants in cm-1:             0.101126             0.044869             0.036955
Rotational constants in MHz :          3031.675194          1345.126647          1107.895511

                             ****ORCA TERMINATED NORMALLY****
TOTAL RUN TIME: 0 days 0 hours 0 minutes 10 seconds 940 msec
