                         Program Version 6.0.0  -   RELEASE  -
|  1> ! r2scan-3c def2/J RI DEFGRID2 scfconv6 printgap
|  2> %output
|  3>     printlevel normal
|  4> end
|  5> * xyz 0 1
|  6> C -3.5442066002 -1.5630943033 -0.9702463292
|  7> C -3.1741422617 -0.5967276514 0.1548109172
|  8> H -3.6576041421 -0.8926355254 1.0889204143
|  9> C -1.6745294895 -0.5430329927 0.3725777924
| 10> C -1.128404597 -0.9934146465 1.5904521825
| 11> C 0.2200181012 -0.9725180639 1.8040957022
| 12> C 1.1031875985 -0.492897154 0.8124133876
| 13> C 2.4939045353 -0.4559714032 1.0010308993
| 14> C 3.3325351471 0.0215791536 0.0175165892
| 15> C 2.7893568547 0.4821655011 -1.1988632384
| 16> C 1.437413772 0.4538675758 -1.4011756872
| 17> C 0.5570436608 -0.0298812042 -0.4140950161
| 18> C -0.8384421377 -0.066990419 -0.6039726477
| 19> O 4.6670860535 0.0123358469 0.3053571201
| 20> C 5.5820887613 0.4903436824 -0.6626363408
| 21> C -3.6103628904 0.8160732457 -0.1638351713
| 22> O -3.6375341975 1.3065467072 -1.2715491311
| 23> O -3.9276413433 1.49585034 0.9269881849
| 24> H -3.1678827192 -1.1919195785 -1.9196104822
| 25> H -3.1109266838 -2.5395423903 -0.7741711764
| 26> H -4.6244264137 -1.6602536912 -1.0432754932
| 27> H -1.7925094884 -1.361239294 2.3581795495
| 28> H 0.6317394318 -1.3227898527 2.7386734197
| 29> H 2.9233634657 -0.8044443711 1.9275392045
| 30> H 3.4347190096 0.8585027477 -1.9759699387
| 31> H 1.0252547126 0.8078974503 -2.3346705836
| 32> H -1.2446024147 0.2996204889 -1.5362739847
| 33> H 6.5624517922 0.3810392183 -0.2043492949
| 34> H 5.4013687026 1.5434131223 -0.8932444052
| 35> H 5.5376873404 -0.1048486525 -1.5783885845
| 36> H -4.1651179333 2.4252419725 0.7401947016
| 37> *
| 38>
| 39>                          ****END OF INPUT****

CARTESIAN COORDINATES (ANGSTROEM)
---------------------------------
  C     -3.544207   -1.563094   -0.970246
  C     -3.174142   -0.596728    0.154811
  H     -3.657604   -0.892636    1.088920
  C     -1.674529   -0.543033    0.372578
  C     -1.128405   -0.993415    1.590452
  C      0.220018   -0.972518    1.804096
  C      1.103188   -0.492897    0.812413
  C      2.493905   -0.455971    1.001031
  C      3.332535    0.021579    0.017517
  C      2.789357    0.482166   -1.198863
  C      1.437414    0.453868   -1.401176
  C      0.557044   -0.029881   -0.414095
  C     -0.838442   -0.066990   -0.603973
  O      4.667086    0.012336    0.305357
  C      5.582089    0.490344   -0.662636
  C     -3.610363    0.816073   -0.163835
  O     -3.637534    1.306547   -1.271549
  O     -3.927641    1.495850    0.926988
  H     -3.167883   -1.191920   -1.919610
  H     -3.110927   -2.539542   -0.774171
  H     -4.624426   -1.660254   -1.043275
  H     -1.792509   -1.361239    2.358180
  H      0.631739   -1.322790    2.738673
  H      2.923363   -0.804444    1.927539
  H      3.434719    0.858503   -1.975970
  H      1.025255    0.807897   -2.334671
  H     -1.244602    0.299620   -1.536274
  H      6.562452    0.381039   -0.204349
  H      5.401369    1.543413   -0.893244
  H      5.537687   -0.104849   -1.578389
  H     -4.165118    2.425242    0.740195

 Total Charge           Charge          ....    0
 Multiplicity           Mult            ....    1
 Number of Electrons    NEL             ....  122
 Basis Dimension        Dim             ....  408

ORBITAL ENERGIES
----------------

  NO   OCC          E(Eh)            E(eV)
   0   2.0000     -19.004208      -517.1308
   1   2.0000     -18.987802      -516.6844
   2   2.0000     -18.934173      -515.2251
   3   2.0000     -10.161040      -276.4960
   4   2.0000     -10.098083      -274.7828
   5   2.0000     -10.089933      -274.5610
   6   2.0000     -10.058317      -273.7007
   7   2.0000     -10.046991      -273.3925
   8   2.0000     -10.045788      -273.3598
   9   2.0000     -10.042074      -273.2587
  10   2.0000     -10.041241      -273.2361
  11   2.0000     -10.040531      -273.2167
  12   2.0000     -10.036535      -273.1080
  13   2.0000     -10.034928      -273.0643
  14   2.0000     -10.033180      -273.0167
  15   2.0000     -10.029531      -272.9174
  16   2.0000     -10.025777      -272.8153
  17   2.0000      -1.078190       -29.3390
  18   2.0000      -1.035112       -28.1668
  19   2.0000      -0.980052       -26.6686
  20   2.0000      -0.848842       -23.0982
  21   2.0000      -0.807680       -21.9781
  22   2.0000      -0.766314       -20.8525
  23   2.0000      -0.745061       -20.2742
  24   2.0000      -0.709077       -19.2950
  25   2.0000      -0.702289       -19.1103
  26   2.0000      -0.660048       -17.9608
  27   2.0000      -0.647079       -17.6079
  28   2.0000      -0.605565       -16.4783
  29   2.0000      -0.582467       -15.8497
  30   2.0000      -0.571894       -15.5620
  31   2.0000      -0.547990       -14.9116
  32   2.0000      -0.506062       -13.7706
  33   2.0000      -0.489393       -13.3171
  34   2.0000      -0.482203       -13.1214
  35   2.0000      -0.464326       -12.6349
  36   2.0000      -0.445079       -12.1112
  37   2.0000      -0.441036       -12.0012
  38   2.0000      -0.439880       -11.9697
  39   2.0000      -0.426446       -11.6042
  40   2.0000      -0.416038       -11.3210
  41   2.0000      -0.410345       -11.1660
  42   2.0000      -0.401071       -10.9137
  43   2.0000      -0.388953       -10.5839
  44   2.0000      -0.378696       -10.3048
  45   2.0000      -0.374690       -10.1958
  46   2.0000      -0.371385       -10.1059
  47   2.0000      -0.362843        -9.8735
  48   2.0000      -0.353453        -9.6179
  49   2.0000      -0.344218        -9.3666
  50   2.0000      -0.330167        -8.9843
  51   2.0000      -0.326131        -8.8745
  52   2.0000      -0.313745        -8.5374
  53   2.0000      -0.308184        -8.3861
  54   2.0000      -0.295205        -8.0329
  55   2.0000      -0.292050        -7.9471
  56   2.0000      -0.283957        -7.7269
  57   2.0000      -0.259277        -7.0553
  58   2.0000      -0.240322        -6.5395
  59   2.0000      -0.222258        -6.0479
  60   2.0000      -0.188623        -5.1327
  61   0.0000      -0.067938        -1.8487
  62   0.0000      -0.037157        -1.0111
  63   0.0000      -0.009232        -0.2512
  64   0.0000      -0.004389        -0.1194
  65   0.0000       0.055999         1.5238

MULLIKEN ATOMIC CHARGES
-----------------------
   0 C :   -0.494250
   1 C :   -0.058444
   2 H :    0.151696
   3 C :    0.139752
   4 C :   -0.212208
   5 C :   -0.304917
   6 C :    0.261838
   7 C :   -0.402541
   8 C :    0.341014
   9 C :   -0.289243
  10 C :   -0.270555
  11 C :    0.167964
  12 C :   -0.275917
  13 O :   -0.180870
  14 C :   -0.333223
  15 C :    0.330468
  16 O :   -0.408678
  17 O :   -0.335506
  18 H :    0.179002
  19 H :    0.156527
  20 H :    0.148127
  21 H :    0.145229
  22 H :    0.141003
  23 H :    0.154423
  24 H :    0.147244
  25 H :    0.144729
  26 H :    0.167938
  27 H :    0.155751
  28 H :    0.153186
  29 H :    0.153093
  30 H :    0.327365
Sum of atomic charges:   -0.0000000

LOEWDIN ATOMIC CHARGES
----------------------
   0 C :   -0.373038
   1 C :   -0.148143
   2 H :    0.185056
   3 C :   -0.077734
   4 C :   -0.147827
   5 C :   -0.143555
   6 C :   -0.048681
   7 C :   -0.120333
   8 C :    0.190301
   9 C :   -0.159679
  10 C :   -0.129199
  11 C :   -0.063424
  12 C :   -0.117708
  13 O :   -0.682643
  14 C :   -0.055796
  15 C :    0.351519
  16 O :   -0.427905
  17 O :   -0.394074
  18 H :    0.171346
  19 H :    0.160383
  20 H :    0.158221
  21 H :    0.170541
  22 H :    0.171275
  23 H :    0.183826
  24 H :    0.176151
  25 H :    0.173222
  26 H :    0.187938
  27 H :    0.180971
  28 H :    0.164365
  29 H :    0.164335
  30 H :    0.300290

  Mayer bond orders larger than 0.100000
B(  0-C ,  1-C ) :   0.9378 B(  0-C , 18-H ) :   0.9654 B(  0-C , 19-H ) :   0.9742
B(  0-C , 20-H ) :   0.9718 B(  1-C ,  2-H ) :   0.9741 B(  1-C ,  3-C ) :   0.7845
B(  1-C , 15-C ) :   0.9461 B(  3-C ,  4-C ) :   1.2304 B(  3-C , 12-C ) :   1.5214
B(  4-C ,  5-C ) :   1.5127 B(  4-C , 21-H ) :   0.9333 B(  5-C ,  6-C ) :   1.1925
B(  5-C , 22-H ) :   0.9570 B(  6-C ,  7-C ) :   1.1398 B(  6-C , 11-C ) :   1.4800
B(  7-C ,  8-C ) :   1.5017 B(  7-C , 23-H ) :   0.9429 B(  8-C ,  9-C ) :   1.2378
B(  8-C , 13-O ) :   1.0532 B(  9-C , 10-C ) :   1.4694 B(  9-C , 24-H ) :   0.9192
B( 10-C , 11-C ) :   1.2324 B( 10-C , 25-H ) :   0.9540 B( 11-C , 12-C ) :   1.1879
B( 12-C , 26-H ) :   0.9360 B( 13-O , 14-C ) :   0.8516 B( 14-C , 27-H ) :   0.9679
B( 14-C , 28-H ) :   0.9641 B( 14-C , 29-H ) :   0.9640 B( 15-C , 16-O ) :   1.9154
B( 15-C , 17-O ) :   1.0646 B( 17-O , 30-H ) :   0.8605

Dispersion correction           -0.013045531
FINAL SINGLE POINT ENERGY      -767.446483717958

DIPOLE MOMENT
-------------

Method             : SCF
Type of density    : Electron Density
Multiplicity       :   1
Irrep              :   0
Energy             :  -767.4470629529512280 Eh
Relativity type    :
Basis              : AO
                                X                 Y                 Z
Electronic contribution:     -2.996048695       3.385838021       3.348833674
Nuclear contribution   :      3.478510393      -3.300032576      -3.196409112
                        -----------------------------------------
Total Dipole Moment    :      0.482461698       0.085805445       0.152424562
                        -----------------------------------------
Magnitude (a.u.)       :      0.513191106
Magnitude (Debye)      :      1.304428127

Rotational constants in cm-1:             0.041499             0.007189             0.006761
Rotational constants in MHz :          1244.095679           215.534744           202.696628

                             ****ORCA TERMINATED NORMALLY****
TOTAL RUN TIME: 0 days 0 hours 1 minutes 27 seconds 383 msec
