                         Program Version 6.0.0  -   RELEASE  -
|  1> ! r2scan-3c def2/J RI DEFGRID2 scfconv6 printgap
|  2> %output
|  3>     printlevel normal
|  4> end
|  5> %cpcm
|  6>     smd true
|  7>     smdsolvent "water"
|  8> end
|  9> * xyz 0 1
| 10> C -3.5442066002 -1.5630943033 -0.9702463292
| 11> C -3.1741422617 -0.5967276514 0.1548109172
| 12> H -3.6576041421 -0.8926355254 1.0889204143
| 13> C -1.6745294895 -0.5430329927 0.3725777924
| 14> C -1.128404597 -0.9934146465 1.5904521825
| 15> C 0.2200181012 -0.9725180639 1.8040957022
| 16> C 1.1031875985 -0.492897154 0.8124133876
| 17> C 2.4939045353 -0.4559714032 1.0010308993
| 18> C 3.3325351471 0.0215791536 0.0175165892
| 19> C 2.7893568547 0.4821655011 -1.1988632384
| 20> C 1.437413772 0.4538675758 -1.4011756872
| 21> C 0.5570436608 -0.0298812042 -0.4140950161
| 22> C -0.8384421377 -0.066990419 -0.6039726477
| 23> O 4.6670860535 0.0123358469 0.3053571201
| 24> C 5.5820887613 0.4903436824 -0.6626363408
| 25> C -3.6103628904 0.8160732457 -0.1638351713
| 26> O -3.6375341975 1.3065467072 -1.2715491311
| 27> O -3.9276413433 1.49585034 0.9269881849
| 28> H -3.1678827192 -1.1919195785 -1.9196104822
| 29> H -3.1109266838 -2.5395423903 -0.7741711764
| 30> H -4.6244264137 -1.6602536912 -1.0432754932
| 31> H -1.7925094884 -1.361239294 2.3581795495
| 32> H 0.6317394318 -1.3227898527 2.7386734197
| 33> H 2.9233634657 -0.8044443711 1.9275392045
| 34> H 3.4347190096 0.8585027477 -1.9759699387
| 35> H 1.0252547126 0.8078974503 -2.3346705836
| 36> H -1.2446024147 0.2996204889 -1.5362739847
| 37> H 6.5624517922 0.3810392183 -0.2043492949
| 38> H 5.4013687026 1.5434131223 -0.8932444052
| 39> H 5.5376873404 -0.1048486525 -1.5783885845
| 40> H -4.1651179333 2.4252419725 0.7401947016
| 41> *
| 42>
| 43>                          ****END OF INPUT****

CARTESIAN COORDINATES (ANGSTROEM)
---------------------------------
  C     -3.544207   -1.563094   -0.970246
  C     -3.174142   -0.596728    0.154811
  H     -3.657604   -0.892636    1.088920
  C     -1.674529   -0.543033    0.372578
  C     -1.128405   -0.993415    1.590452
  C      0.220018   -0.972518    1.804096
  C      1.103188   -0.492897    0.812413
  C      2.493905   -0.455971    1.001031
  C      3.332535    0.021579    0.017517
  C      2.789357    0.482166   -1.198863
  C      1.437414    0.453868   -1.401176
  C      0.557044   -0.029881   -0.414095
  C     -0.838442   -0.066990   -0.603973
  O      4.667086    0.012336    0.305357
  C      5.582089    0.490344   -0.662636
  C     -3.610363    0.816073   -0.163835
  O     -3.637534    1.306547   -1.271549
  O     -3.927641    1.495850    0.926988
  H     -3.167883   -1.191920   -1.919610
  H     -3.110927   -2.539542   -0.774171
  H     -4.624426   -1.660254   -1.043275
  H     -1.792509   -1.361239    2.358180
  H      0.631739   -1.322790    2.738673
  H      2.923363   -0.804444    1.927539
  H      3.434719    0.858503   -1.975970
  H      1.025255    0.807897   -2.334671
  H     -1.244602    0.299620   -1.536274
  H      6.562452    0.381039   -0.204349
  H      5.401369    1.543413   -0.893244
  H      5.537687   -0.104849   -1.578389
  H     -4.165118    2.425242    0.740195

 Total Charge           Charge          ....    0
 Multiplicity           Mult            ....    1
 Number of Electrons    NEL             ....  122
 Basis Dimension        Dim             ....  408

ORBITAL ENERGIES
----------------

  NO   OCC          E(Eh)            E(eV)
   0   2.0000     -19.003098      -517.1006
   1   2.0000     -18.988736      -516.7098
   2   2.0000     -18.946802      -515.5687
   3   2.0000     -10.169289      -276.7204
   4   2.0000     -10.099545      -274.8226
   5   2.0000     -10.073285      -274.1080
   6   2.0000     -10.054681      -273.6018
   7   2.0000     -10.048590      -273.4360
   8   2.0000     -10.048549      -273.4349
   9   2.0000     -10.044609      -273.3277
  10   2.0000     -10.040004      -273.2024
  11   2.0000     -10.038216      -273.1537
  12   2.0000     -10.035586      -273.0822
  13   2.0000     -10.034857      -273.0623
  14   2.0000     -10.034725      -273.0587
  15   2.0000     -10.030829      -272.9527
  16   2.0000     -10.020701      -272.6771
  17   2.0000      -1.080770       -29.4092
  18   2.0000      -1.035147       -28.1678
  19   2.0000      -0.989199       -26.9175
  20   2.0000      -0.851369       -23.1669
  21   2.0000      -0.808223       -21.9929
  22   2.0000      -0.765754       -20.8372
  23   2.0000      -0.745620       -20.2893
  24   2.0000      -0.708537       -19.2803
  25   2.0000      -0.700039       -19.0490
  26   2.0000      -0.654752       -17.8167
  27   2.0000      -0.643297       -17.5050
  28   2.0000      -0.604671       -16.4539
  29   2.0000      -0.579717       -15.7749
  30   2.0000      -0.571813       -15.5598
  31   2.0000      -0.544980       -14.8296
  32   2.0000      -0.501869       -13.6566
  33   2.0000      -0.487942       -13.2776
  34   2.0000      -0.481748       -13.1090
  35   2.0000      -0.467147       -12.7117
  36   2.0000      -0.453809       -12.3488
  37   2.0000      -0.438809       -11.9406
  38   2.0000      -0.433191       -11.7877
  39   2.0000      -0.428124       -11.6499
  40   2.0000      -0.413798       -11.2600
  41   2.0000      -0.406777       -11.0690
  42   2.0000      -0.398789       -10.8516
  43   2.0000      -0.387144       -10.5347
  44   2.0000      -0.379731       -10.3330
  45   2.0000      -0.373865       -10.1734
  46   2.0000      -0.372045       -10.1239
  47   2.0000      -0.359258        -9.7759
  48   2.0000      -0.351095        -9.5538
  49   2.0000      -0.342206        -9.3119
  50   2.0000      -0.328060        -8.9270
  51   2.0000      -0.324755        -8.8370
  52   2.0000      -0.311527        -8.4771
  53   2.0000      -0.307385        -8.3644
  54   2.0000      -0.301761        -8.2113
  55   2.0000      -0.292917        -7.9707
  56   2.0000      -0.285831        -7.7779
  57   2.0000      -0.263873        -7.1803
  58   2.0000      -0.251534        -6.8446
  59   2.0000      -0.225129        -6.1261
  60   2.0000      -0.192064        -5.2263
  61   0.0000      -0.070418        -1.9162
  62   0.0000      -0.041578        -1.1314
  63   0.0000      -0.014749        -0.4013
  64   0.0000      -0.007746        -0.2108
  65   0.0000       0.067073         1.8252

MULLIKEN ATOMIC CHARGES
-----------------------
   0 C :   -0.550568
   1 C :   -0.010194
   2 H :    0.181985
   3 C :    0.106659
   4 C :   -0.235023
   5 C :   -0.325524
   6 C :    0.208759
   7 C :   -0.427754
   8 C :    0.338798
   9 C :   -0.285778
  10 C :   -0.302338
  11 C :    0.115833
  12 C :   -0.268153
  13 O :   -0.222767
  14 C :   -0.341696
  15 C :    0.348284
  16 O :   -0.482753
  17 O :   -0.362200
  18 H :    0.180778
  19 H :    0.173850
  20 H :    0.170453
  21 H :    0.180221
  22 H :    0.175016
  23 H :    0.183941
  24 H :    0.185557
  25 H :    0.178736
  26 H :    0.188776
  27 H :    0.173742
  28 H :    0.172568
  29 H :    0.172586
  30 H :    0.378204
Sum of atomic charges:   -0.0000000

LOEWDIN ATOMIC CHARGES
----------------------
   0 C :   -0.378528
   1 C :   -0.143700
   2 H :    0.197511
   3 C :   -0.082648
   4 C :   -0.152064
   5 C :   -0.151183
   6 C :   -0.063245
   7 C :   -0.134172
   8 C :    0.181218
   9 C :   -0.155472
  10 C :   -0.135411
  11 C :   -0.077476
  12 C :   -0.127406
  13 O :   -0.707671
  14 C :   -0.051290
  15 C :    0.360961
  16 O :   -0.482592
  17 O :   -0.386268
  18 H :    0.169197
  19 H :    0.166307
  20 H :    0.164907
  21 H :    0.183795
  22 H :    0.183568
  23 H :    0.193274
  24 H :    0.191592
  25 H :    0.185513
  26 H :    0.193405
  27 H :    0.187700
  28 H :    0.174366
  29 H :    0.174380
  30 H :    0.321433

  Mayer bond orders larger than 0.100000
B(  0-C ,  1-C ) :   0.9087 B(  0-C , 18-H ) :   0.9669 B(  0-C , 19-H ) :   0.9698
B(  0-C , 20-H ) :   0.9695 B(  1-C ,  2-H ) :   0.9637 B(  1-C ,  3-C ) :   0.7870
B(  1-C , 15-C ) :   0.9464 B(  3-C ,  4-C ) :   1.2238 B(  3-C , 12-C ) :   1.4743
B(  4-C ,  5-C ) :   1.4758 B(  4-C , 21-H ) :   0.9531 B(  5-C ,  6-C ) :   1.1818
B(  5-C , 22-H ) :   0.9739 B(  6-C ,  7-C ) :   1.1751 B(  6-C , 11-C ) :   1.3957
B(  7-C ,  8-C ) :   1.4429 B(  7-C , 23-H ) :   0.9493 B(  8-C ,  9-C ) :   1.2231
B(  8-C , 13-O ) :   1.0381 B(  9-C , 10-C ) :   1.4486 B(  9-C , 24-H ) :   0.9308
B( 10-C , 11-C ) :   1.2188 B( 10-C , 25-H ) :   0.9709 B( 11-C , 12-C ) :   1.2126
B( 12-C , 26-H ) :   0.9338 B( 13-O , 14-C ) :   0.8432 B( 14-C , 27-H ) :   0.9602
B( 14-C , 28-H ) :   0.9562 B( 14-C , 29-H ) :   0.9561 B( 15-C , 16-O ) :   1.8559
B( 15-C , 17-O ) :   1.0951 B( 17-O , 30-H ) :   0.8358

Dispersion correction           -0.013045531
FINAL SINGLE POINT ENERGY      -767.461180787786

DIPOLE MOMENT
-------------

Method             : SCF
Type of density    : Electron Density
Multiplicity       :   1
Irrep              :   0
Energy             :  -767.4617600227784351 Eh
Relativity type    :
Basis              : AO
                                X                 Y                 Z
Electronic contribution:     -2.988413112       3.402119846       3.427056152
Nuclear contribution   :      3.478510393      -3.300032576      -3.196409112
                        -----------------------------------------
Total Dipole Moment    :      0.490097281       0.102087270       0.230647040
                        -----------------------------------------
Magnitude (a.u.)       :      0.551194351
Magnitude (Debye)      :      1.401024699

Rotational constants in cm-1:             0.041499             0.007189             0.006761
Rotational constants in MHz :          1244.095679           215.534744           202.696628

                             ****ORCA TERMINATED NORMALLY****
TOTAL RUN TIME: 0 days 0 hours 1 minutes 45 seconds 794 msec
