                         Program Version 6.0.0  -   RELEASE  -
|  1> ! r2scan-3c def2/J RI DEFGRID2 scfconv6 printgap
|  2> %output
|  3>     printlevel normal
|  4> end
|  5> * xyz 0 1
|  6> C -3.8817709418 0.3801165757 0.0771281948
|  7> C -2.6838114489 -0.5469482436 0.243974812
|  8> C -1.3707013564 0.1792713002 -0.0362889304
|  9> C -0.1620924402 -0.7409122922 0.1516617106
| 10> C 1.1155623625 -0.0502426295 -0.2462947745
| 11> O 1.2698879135 0.5997363615 -1.2590323031
| 12> O 2.0733147309 -0.2475868747 0.6524921419
| 13> C 3.3643144758 0.3266470241 0.4231160698
| 14> H -3.9240897373 0.7678344595 -0.9379375926
| 15> H -4.8070290124 -0.1520298006 0.2819341427
| 16> H -3.8099706537 1.2222718853 0.7614012161
| 17> H -2.6675945923 -0.9393406352 1.2625547828
| 18> H -2.7814802712 -1.3929500689 -0.4388230765
| 19> H -1.2785410746 1.0365716042 0.633971931
| 20> H -1.3653929556 0.5589422029 -1.0600967737
| 21> H -0.2737823139 -1.615323216 -0.4935977346
| 22> H -0.072245721 -1.0760457461 1.1842059329
| 23> H 3.5024951243 0.5160317679 -0.6419301318
| 24> H 4.0916142491 -0.3914856473 0.7918584676
| 25> H 3.4371721245 1.2627366416 0.9761010612
| 26> *
| 27>
| 28>                          ****END OF INPUT****

CARTESIAN COORDINATES (ANGSTROEM)
---------------------------------
  C     -3.881771    0.380117    0.077128
  C     -2.683811   -0.546948    0.243975
  C     -1.370701    0.179271   -0.036289
  C     -0.162092   -0.740912    0.151662
  C      1.115562   -0.050243   -0.246295
  O      1.269888    0.599736   -1.259032
  O      2.073315   -0.247587    0.652492
  C      3.364314    0.326647    0.423116
  H     -3.924090    0.767834   -0.937938
  H     -4.807029   -0.152030    0.281934
  H     -3.809971    1.222272    0.761401
  H     -2.667595   -0.939341    1.262555
  H     -2.781480   -1.392950   -0.438823
  H     -1.278541    1.036572    0.633972
  H     -1.365393    0.558942   -1.060097
  H     -0.273782   -1.615323   -0.493598
  H     -0.072246   -1.076046    1.184206
  H      3.502495    0.516032   -0.641930
  H      4.091614   -0.391486    0.791858
  H      3.437172    1.262737    0.976101

 Total Charge           Charge          ....    0
 Multiplicity           Mult            ....    1
 Number of Electrons    NEL             ....   64
 Basis Dimension        Dim             ....  222

ORBITAL ENERGIES
----------------

  NO   OCC          E(Eh)            E(eV)
   0   2.0000     -18.999631      -517.0062
   1   2.0000     -18.928036      -515.0580
   2   2.0000     -10.152470      -276.2628
   3   2.0000     -10.085462      -274.4394
   4   2.0000     -10.041657      -273.2474
   5   2.0000     -10.030871      -272.9539
   6   2.0000     -10.028611      -272.8924
   7   2.0000     -10.017706      -272.5956
   8   2.0000      -1.072437       -29.1825
   9   2.0000      -0.976150       -26.5624
  10   2.0000      -0.776991       -21.1430
  11   2.0000      -0.729108       -19.8400
  12   2.0000      -0.686860       -18.6904
  13   2.0000      -0.615451       -16.7473
  14   2.0000      -0.553301       -15.0561
  15   2.0000      -0.530358       -14.4318
  16   2.0000      -0.466521       -12.6947
  17   2.0000      -0.460092       -12.5197
  18   2.0000      -0.446936       -12.1617
  19   2.0000      -0.435297       -11.8450
  20   2.0000      -0.404943       -11.0190
  21   2.0000      -0.392887       -10.6910
  22   2.0000      -0.386056       -10.5051
  23   2.0000      -0.363879        -9.9017
  24   2.0000      -0.349611        -9.5134
  25   2.0000      -0.326926        -8.8961
  26   2.0000      -0.318856        -8.6765
  27   2.0000      -0.309010        -8.4086
  28   2.0000      -0.299835        -8.1589
  29   2.0000      -0.298430        -8.1207
  30   2.0000      -0.272835        -7.4242
  31   2.0000      -0.237480        -6.4622
  32   0.0000      -0.014288        -0.3888
  33   0.0000       0.068883         1.8744
  34   0.0000       0.097397         2.6503
  35   0.0000       0.100156         2.7254
  36   0.0000       0.119937         3.2637

MULLIKEN ATOMIC CHARGES
-----------------------
   0 C :   -0.467252
   1 C :   -0.228683
   2 C :   -0.279643
   3 C :   -0.327190
   4 C :    0.402509
   5 O :   -0.435042
   6 O :   -0.194157
   7 C :   -0.300792
   8 H :    0.144787
   9 H :    0.147657
  10 H :    0.142140
  11 H :    0.134516
  12 H :    0.137716
  13 H :    0.137950
  14 H :    0.170056
  15 H :    0.168609
  16 H :    0.165197
  17 H :    0.182812
  18 H :    0.148407
  19 H :    0.150404
Sum of atomic charges:    0.0000000

LOEWDIN ATOMIC CHARGES
----------------------
   0 C :   -0.422970
   1 C :   -0.314301
   2 C :   -0.285506
   3 C :   -0.227649
   4 C :    0.359258
   5 O :   -0.439145
   6 O :   -0.603758
   7 C :   -0.046405
   8 H :    0.151363
   9 H :    0.150611
  10 H :    0.150201
  11 H :    0.151049
  12 H :    0.151586
  13 H :    0.158096
  14 H :    0.170201
  15 H :    0.182007
  16 H :    0.178233
  17 H :    0.189649
  18 H :    0.174853
  19 H :    0.172628

  Mayer bond orders larger than 0.100000
B(  0-C ,  1-C ) :   0.9026 B(  0-C ,  8-H ) :   0.9828 B(  0-C ,  9-H ) :   0.9754
B(  0-C , 10-H ) :   0.9820 B(  1-C ,  2-C ) :   0.9147 B(  1-C , 11-H ) :   0.9661
B(  1-C , 12-H ) :   0.9803 B(  2-C ,  3-C ) :   0.9201 B(  2-C , 13-H ) :   0.9647
B(  2-C , 14-H ) :   0.9698 B(  3-C ,  4-C ) :   0.9826 B(  3-C , 15-H ) :   0.9526
B(  3-C , 16-H ) :   0.9777 B(  4-C ,  5-O ) :   1.8264 B(  4-C ,  6-O ) :   1.0623
B(  6-O ,  7-C ) :   0.8423 B(  7-C , 17-H ) :   0.9667 B(  7-C , 18-H ) :   0.9687
B(  7-C , 19-H ) :   0.9612

Dispersion correction           -0.004860581
FINAL SINGLE POINT ENERGY      -386.229940319769

DIPOLE MOMENT
-------------

Method             : SCF
Type of density    : Electron Density
Multiplicity       :   1
Irrep              :   0
Energy             :  -386.2371060706425396 Eh
Relativity type    :
Basis              : AO
                                X                 Y                 Z
Electronic contribution:      9.386776474      -0.134375191      -1.518703036
Nuclear contribution   :     -9.284101348      -0.185025859       2.167217210
                        -----------------------------------------
Total Dipole Moment    :      0.102675126      -0.319401050       0.648514174
                        -----------------------------------------
Magnitude (a.u.)       :      0.730157412
Magnitude (Debye)      :      1.855912648

Rotational constants in cm-1:             0.219647             0.025128             0.023915
Rotational constants in MHz :          6584.863387           753.305569           716.964247

                             ****ORCA TERMINATED NORMALLY****
TOTAL RUN TIME: 0 days 0 hours 0 minutes 27 seconds 802 msec
