                         Program Version 6.0.0  -   RELEASE  -
|  1> ! r2scan-3c def2/J RI DEFGRID2 scfconv6 printgap
|  2> %output
|  3>     printlevel normal
|  4> end
|  5> %cpcm
|  6>     smd true
|  7>     smdsolvent "water"
|  8> end
|  9> * xyz 0 1
| 10> C -3.8817709418 0.3801165757 0.0771281948
| 11> C -2.6838114489 -0.5469482436 0.243974812
| 12> C -1.3707013564 0.1792713002 -0.0362889304
| 13> C -0.1620924402 -0.7409122922 0.1516617106
| 14> C 1.1155623625 -0.0502426295 -0.2462947745
| 15> O 1.2698879135 0.5997363615 -1.2590323031
| 16> O 2.0733147309 -0.2475868747 0.6524921419
| 17> C 3.3643144758 0.3266470241 0.4231160698
| 18> H -3.9240897373 0.7678344595 -0.9379375926
| 19> H -4.8070290124 -0.1520298006 0.2819341427
| 20> H -3.8099706537 1.2222718853 0.7614012161
| 21> H -2.6675945923 -0.9393406352 1.2625547828
| 22> H -2.7814802712 -1.3929500689 -0.4388230765
| 23> H -1.2785410746 1.0365716042 0.633971931
| 24> H -1.3653929556 0.5589422029 -1.0600967737
| 25> H -0.2737823139 -1.615323216 -0.4935977346
| 26> H -0.072245721 -1.0760457461 1.1842059329
| 27> H 3.5024951243 0.5160317679 -0.6419301318
| 28> H 4.0916142491 -0.3914856473 0.7918584676
| 29> H 3.4371721245 1.2627366416 0.9761010612
| 30> *
| 31>
| 32>                          ****END OF INPUT****

CARTESIAN COORDINATES (ANGSTROEM)
---------------------------------
  C     -3.881771    0.380117    0.077128
  C     -2.683811   -0.546948    0.243975
  C     -1.370701    0.179271   -0.036289
  C     -0.162092   -0.740912    0.151662
  C      1.115562   -0.050243   -0.246295
  O      1.269888    0.599736   -1.259032
  O      2.073315   -0.247587    0.652492
  C      3.364314    0.326647    0.423116
  H     -3.924090    0.767834   -0.937938
  H     -4.807029   -0.152030    0.281934
  H     -3.809971    1.222272    0.761401
  H     -2.667595   -0.939341    1.262555
  H     -2.781480   -1.392950   -0.438823
  H     -1.278541    1.036572    0.633972
  H     -1.365393    0.558942   -1.060097
  H     -0.273782   -1.615323   -0.493598
  H     -0.072246   -1.076046    1.184206
  H      3.502495    0.516032   -0.641930
  H      4.091614   -0.391486    0.791858
  H      3.437172    1.262737    0.976101

 Total Charge           Charge          ....    0
 Multiplicity           Mult            ....    1
 Number of Electrons    NEL             ....   64
 Basis Dimension        Dim             ....  222

ORBITAL ENERGIES
----------------

  NO   OCC          E(Eh)            E(eV)
   0   2.0000     -19.004598      -517.1414
   1   2.0000     -18.943308      -515.4736
   2   2.0000     -10.162534      -276.5366
   3   2.0000     -10.075142      -274.1586
   4   2.0000     -10.035269      -273.0736
   5   2.0000     -10.024371      -272.7770
   6   2.0000     -10.018758      -272.6243
   7   2.0000     -10.008491      -272.3449
   8   2.0000      -1.079024       -29.3617
   9   2.0000      -0.989217       -26.9180
  10   2.0000      -0.770641       -20.9702
  11   2.0000      -0.723763       -19.6946
  12   2.0000      -0.680272       -18.5111
  13   2.0000      -0.608468       -16.5572
  14   2.0000      -0.545658       -14.8481
  15   2.0000      -0.528332       -14.3766
  16   2.0000      -0.468085       -12.7372
  17   2.0000      -0.459960       -12.5162
  18   2.0000      -0.450861       -12.2686
  19   2.0000      -0.433532       -11.7970
  20   2.0000      -0.397870       -10.8266
  21   2.0000      -0.391020       -10.6402
  22   2.0000      -0.379296       -10.3212
  23   2.0000      -0.361640        -9.8407
  24   2.0000      -0.344652        -9.3785
  25   2.0000      -0.324399        -8.8273
  26   2.0000      -0.315343        -8.5809
  27   2.0000      -0.301393        -8.2013
  28   2.0000      -0.294517        -8.0142
  29   2.0000      -0.289396        -7.8749
  30   2.0000      -0.280005        -7.6193
  31   2.0000      -0.252979        -6.8839
  32   0.0000      -0.021618        -0.5883
  33   0.0000       0.073654         2.0042
  34   0.0000       0.104785         2.8513
  35   0.0000       0.109766         2.9869
  36   0.0000       0.130237         3.5439

MULLIKEN ATOMIC CHARGES
-----------------------
   0 C :   -0.511014
   1 C :   -0.243608
   2 C :   -0.284894
   3 C :   -0.347216
   4 C :    0.443668
   5 O :   -0.519608
   6 O :   -0.211051
   7 C :   -0.320546
   8 H :    0.153983
   9 H :    0.158108
  10 H :    0.154395
  11 H :    0.147638
  12 H :    0.150597
  13 H :    0.156903
  14 H :    0.159536
  15 H :    0.198865
  16 H :    0.179702
  17 H :    0.181144
  18 H :    0.175125
  19 H :    0.178272
Sum of atomic charges:    0.0000000

LOEWDIN ATOMIC CHARGES
----------------------
   0 C :   -0.431555
   1 C :   -0.313475
   2 C :   -0.286792
   3 C :   -0.224921
   4 C :    0.369409
   5 O :   -0.500257
   6 O :   -0.605665
   7 C :   -0.041690
   8 H :    0.152797
   9 H :    0.153233
  10 H :    0.152853
  11 H :    0.155331
  12 H :    0.155268
  13 H :    0.162844
  14 H :    0.165322
  15 H :    0.192779
  16 H :    0.185598
  17 H :    0.189290
  18 H :    0.186593
  19 H :    0.183036

  Mayer bond orders larger than 0.100000
B(  0-C ,  1-C ) :   0.8891 B(  0-C ,  8-H ) :   0.9814 B(  0-C ,  9-H ) :   0.9724
B(  0-C , 10-H ) :   0.9800 B(  1-C ,  2-C ) :   0.9161 B(  1-C , 11-H ) :   0.9659
B(  1-C , 12-H ) :   0.9800 B(  2-C ,  3-C ) :   0.9078 B(  2-C , 13-H ) :   0.9619
B(  2-C , 14-H ) :   0.9715 B(  3-C ,  4-C ) :   0.9842 B(  3-C , 15-H ) :   0.9434
B(  3-C , 16-H ) :   0.9689 B(  4-C ,  5-O ) :   1.7643 B(  4-C ,  6-O ) :   1.0877
B(  6-O ,  7-C ) :   0.8276 B(  7-C , 17-H ) :   0.9629 B(  7-C , 18-H ) :   0.9590
B(  7-C , 19-H ) :   0.9529

Dispersion correction           -0.004860581
FINAL SINGLE POINT ENERGY      -386.234179436681

DIPOLE MOMENT
-------------

Method             : SCF
Type of density    : Electron Density
Multiplicity       :   1
Irrep              :   0
Energy             :  -386.2413451875539181 Eh
Relativity type    :
Basis              : AO
                                X                 Y                 Z
Electronic contribution:      9.433321552      -0.323134320      -1.206471158
Nuclear contribution   :     -9.284101348      -0.185025859       2.167217210
                        -----------------------------------------
Total Dipole Moment    :      0.149220204      -0.508160179       0.960746052
                        -----------------------------------------
Magnitude (a.u.)       :      1.097053514
Magnitude (Debye)      :      2.788488428

Rotational constants in cm-1:             0.219647             0.025128             0.023915
Rotational constants in MHz :          6584.863387           753.305569           716.964247

                             ****ORCA TERMINATED NORMALLY****
TOTAL RUN TIME: 0 days 0 hours 0 minutes 32 seconds 697 msec
