                         Program Version 6.0.0  -   RELEASE  -
|  1> ! r2scan-3c def2/J RI DEFGRID2 scfconv6 printgap
|  2> %output
|  3>     printlevel normal
|  4> end
|  5> * xyz 0 1
|  6> C -2.8177144716 0.819995029 0.6907738294
|  7> C -2.5128380624 -0.2878295204 -0.3104325208
|  8> C -1.199617591 -0.9986165269 0.0181521993
|  9> C -0.0053711111 -0.1062890285 -0.2061925289
| 10> O 0.0957579976 0.718424626 -1.0896625984
| 11> O 0.9461365332 -0.3417298367 0.6914950411
| 12> C 2.1811320421 0.3864618991 0.5876603316
| 13> C 3.137711397 -0.2869629144 -0.3844556128
| 14> H -3.7605637911 1.3021007291 0.4471392764
| 15> H -2.8840994223 0.4180403563 1.6990504247
| 16> H -2.0330379058 1.5738420031 0.669526781
| 17> H -2.437562446 0.1382797157 -1.3125068357
| 18> H -3.3219156643 -1.0185334713 -0.3060037651
| 19> H -1.0727547009 -1.8612127301 -0.6401120856
| 20> H -1.1806767426 -1.3480405485 1.050159349
| 21> H 1.9577714235 1.40723385 0.2625046235
| 22> H 2.5822006489 0.3905346172 1.60149726
| 23> H 2.7210262994 -0.2693023989 -1.3891320484
| 24> H 4.0829931108 0.2457878786 -0.3860643075
| 25> H 3.306803616 -1.3188353849 -0.0887334614
| 26> *
| 27>
| 28>                          ****END OF INPUT****

CARTESIAN COORDINATES (ANGSTROEM)
---------------------------------
  C     -2.817714    0.819995    0.690774
  C     -2.512838   -0.287830   -0.310433
  C     -1.199618   -0.998617    0.018152
  C     -0.005371   -0.106289   -0.206193
  O      0.095758    0.718425   -1.089663
  O      0.946137   -0.341730    0.691495
  C      2.181132    0.386462    0.587660
  C      3.137711   -0.286963   -0.384456
  H     -3.760564    1.302101    0.447139
  H     -2.884099    0.418040    1.699050
  H     -2.033038    1.573842    0.669527
  H     -2.437562    0.138280   -1.312507
  H     -3.321916   -1.018533   -0.306004
  H     -1.072755   -1.861213   -0.640112
  H     -1.180677   -1.348041    1.050159
  H      1.957771    1.407234    0.262505
  H      2.582201    0.390535    1.601497
  H      2.721026   -0.269302   -1.389132
  H      4.082993    0.245788   -0.386064
  H      3.306804   -1.318835   -0.088733

 Total Charge           Charge          ....    0
 Multiplicity           Mult            ....    1
 Number of Electrons    NEL             ....   64
 Basis Dimension        Dim             ....  222

ORBITAL ENERGIES
----------------

  NO   OCC          E(Eh)            E(eV)
   0   2.0000     -18.996015      -516.9078
   1   2.0000     -18.928656      -515.0749
   2   2.0000     -10.152023      -276.2506
   3   2.0000     -10.090690      -274.5816
   4   2.0000     -10.040892      -273.2266
   5   2.0000     -10.030530      -272.9446
   6   2.0000     -10.028391      -272.8864
   7   2.0000     -10.016426      -272.5608
   8   2.0000      -1.070722       -29.1358
   9   2.0000      -0.976106       -26.5612
  10   2.0000      -0.771347       -20.9894
  11   2.0000      -0.738914       -20.1069
  12   2.0000      -0.677438       -18.4340
  13   2.0000      -0.623674       -16.9710
  14   2.0000      -0.564173       -15.3519
  15   2.0000      -0.517616       -14.0851
  16   2.0000      -0.473865       -12.8945
  17   2.0000      -0.455782       -12.4025
  18   2.0000      -0.441527       -12.0146
  19   2.0000      -0.419267       -11.4088
  20   2.0000      -0.409470       -11.1422
  21   2.0000      -0.388797       -10.5797
  22   2.0000      -0.378244       -10.2925
  23   2.0000      -0.364124        -9.9083
  24   2.0000      -0.349628        -9.5139
  25   2.0000      -0.342787        -9.3277
  26   2.0000      -0.315182        -8.5765
  27   2.0000      -0.309321        -8.4170
  28   2.0000      -0.306801        -8.3485
  29   2.0000      -0.303112        -8.2481
  30   2.0000      -0.271536        -7.3889
  31   2.0000      -0.237078        -6.4512
  32   0.0000      -0.014681        -0.3995
  33   0.0000       0.075288         2.0487
  34   0.0000       0.091876         2.5001
  35   0.0000       0.108758         2.9595
  36   0.0000       0.120604         3.2818

MULLIKEN ATOMIC CHARGES
-----------------------
   0 C :   -0.500061
   1 C :   -0.200133
   2 C :   -0.302173
   3 C :    0.348018
   4 O :   -0.432770
   5 O :   -0.174127
   6 C :   -0.135812
   7 C :   -0.472170
   8 H :    0.147501
   9 H :    0.142401
  10 H :    0.160734
  11 H :    0.157262
  12 H :    0.141344
  13 H :    0.167172
  14 H :    0.166534
  15 H :    0.166774
  16 H :    0.147800
  17 H :    0.173189
  18 H :    0.146838
  19 H :    0.151677
Sum of atomic charges:   -0.0000000

LOEWDIN ATOMIC CHARGES
----------------------
   0 C :   -0.417172
   1 C :   -0.297563
   2 C :   -0.232548
   3 C :    0.358278
   4 O :   -0.441141
   5 O :   -0.595869
   6 C :    0.026516
   7 C :   -0.390722
   8 H :    0.152728
   9 H :    0.148933
  10 H :    0.157878
  11 H :    0.169258
  12 H :    0.152401
  13 H :    0.183185
  14 H :    0.178920
  15 H :    0.187613
  16 H :    0.177757
  17 H :    0.165442
  18 H :    0.159072
  19 H :    0.157033

  Mayer bond orders larger than 0.100000
B(  0-C ,  1-C ) :   0.9085 B(  0-C ,  8-H ) :   0.9693 B(  0-C ,  9-H ) :   0.9824
B(  0-C , 10-H ) :   0.9750 B(  1-C ,  2-C ) :   0.9017 B(  1-C , 11-H ) :   0.9612
B(  1-C , 12-H ) :   0.9641 B(  2-C ,  3-C ) :   0.9543 B(  2-C , 13-H ) :   0.9213
B(  2-C , 14-H ) :   0.9985 B(  3-C ,  4-O ) :   1.8378 B(  3-C ,  5-O ) :   1.0574
B(  5-O ,  6-C ) :   0.8198 B(  6-C ,  7-C ) :   0.9366 B(  6-C , 15-H ) :   0.9676
B(  6-C , 16-H ) :   0.9613 B(  7-C , 17-H ) :   0.9717 B(  7-C , 18-H ) :   0.9650
B(  7-C , 19-H ) :   0.9735

Dispersion correction           -0.005096044
FINAL SINGLE POINT ENERGY      -386.237123416744

DIPOLE MOMENT
-------------

Method             : SCF
Type of density    : Electron Density
Multiplicity       :   1
Irrep              :   0
Energy             :  -386.2437827899676108 Eh
Relativity type    :
Basis              : AO
                                X                 Y                 Z
Electronic contribution:      2.136529969      -0.104051734      -0.999052781
Nuclear contribution   :     -1.898237657      -0.313489852       1.502034892
                        -----------------------------------------
Total Dipole Moment    :      0.238292312      -0.417541586       0.502982111
                        -----------------------------------------
Magnitude (a.u.)       :      0.695783879
Magnitude (Debye)      :      1.768542072

Rotational constants in cm-1:             0.168656             0.032446             0.032232
Rotational constants in MHz :          5056.167544           972.715589           966.294168

                             ****ORCA TERMINATED NORMALLY****
TOTAL RUN TIME: 0 days 0 hours 0 minutes 34 seconds 511 msec
