                         Program Version 6.0.0  -   RELEASE  -
|  1> ! r2scan-3c def2/J RI DEFGRID2 scfconv6 printgap
|  2> %output
|  3>     printlevel normal
|  4> end
|  5> %cpcm
|  6>     smd true
|  7>     smdsolvent "water"
|  8> end
|  9> * xyz 0 1
| 10> C -2.8177144716 0.819995029 0.6907738294
| 11> C -2.5128380624 -0.2878295204 -0.3104325208
| 12> C -1.199617591 -0.9986165269 0.0181521993
| 13> C -0.0053711111 -0.1062890285 -0.2061925289
| 14> O 0.0957579976 0.718424626 -1.0896625984
| 15> O 0.9461365332 -0.3417298367 0.6914950411
| 16> C 2.1811320421 0.3864618991 0.5876603316
| 17> C 3.137711397 -0.2869629144 -0.3844556128
| 18> H -3.7605637911 1.3021007291 0.4471392764
| 19> H -2.8840994223 0.4180403563 1.6990504247
| 20> H -2.0330379058 1.5738420031 0.669526781
| 21> H -2.437562446 0.1382797157 -1.3125068357
| 22> H -3.3219156643 -1.0185334713 -0.3060037651
| 23> H -1.0727547009 -1.8612127301 -0.6401120856
| 24> H -1.1806767426 -1.3480405485 1.050159349
| 25> H 1.9577714235 1.40723385 0.2625046235
| 26> H 2.5822006489 0.3905346172 1.60149726
| 27> H 2.7210262994 -0.2693023989 -1.3891320484
| 28> H 4.0829931108 0.2457878786 -0.3860643075
| 29> H 3.306803616 -1.3188353849 -0.0887334614
| 30> *
| 31>
| 32>                          ****END OF INPUT****

CARTESIAN COORDINATES (ANGSTROEM)
---------------------------------
  C     -2.817714    0.819995    0.690774
  C     -2.512838   -0.287830   -0.310433
  C     -1.199618   -0.998617    0.018152
  C     -0.005371   -0.106289   -0.206193
  O      0.095758    0.718425   -1.089663
  O      0.946137   -0.341730    0.691495
  C      2.181132    0.386462    0.587660
  C      3.137711   -0.286963   -0.384456
  H     -3.760564    1.302101    0.447139
  H     -2.884099    0.418040    1.699050
  H     -2.033038    1.573842    0.669527
  H     -2.437562    0.138280   -1.312507
  H     -3.321916   -1.018533   -0.306004
  H     -1.072755   -1.861213   -0.640112
  H     -1.180677   -1.348041    1.050159
  H      1.957771    1.407234    0.262505
  H      2.582201    0.390535    1.601497
  H      2.721026   -0.269302   -1.389132
  H      4.082993    0.245788   -0.386064
  H      3.306804   -1.318835   -0.088733

 Total Charge           Charge          ....    0
 Multiplicity           Mult            ....    1
 Number of Electrons    NEL             ....   64
 Basis Dimension        Dim             ....  222

ORBITAL ENERGIES
----------------

  NO   OCC          E(Eh)            E(eV)
   0   2.0000     -19.001774      -517.0645
   1   2.0000     -18.943637      -515.4826
   2   2.0000     -10.162235      -276.5285
   3   2.0000     -10.082959      -274.3713
   4   2.0000     -10.035228      -273.0724
   5   2.0000     -10.025751      -272.8146
   6   2.0000     -10.018113      -272.6067
   7   2.0000     -10.010576      -272.4016
   8   2.0000      -1.078044       -29.3351
   9   2.0000      -0.989005       -26.9122
  10   2.0000      -0.767800       -20.8929
  11   2.0000      -0.732811       -19.9408
  12   2.0000      -0.672729       -18.3059
  13   2.0000      -0.618918       -16.8416
  14   2.0000      -0.558985       -15.2108
  15   2.0000      -0.516543       -14.0558
  16   2.0000      -0.474348       -12.9077
  17   2.0000      -0.460741       -12.5374
  18   2.0000      -0.443766       -12.0755
  19   2.0000      -0.421451       -11.4683
  20   2.0000      -0.404904       -11.0180
  21   2.0000      -0.385117       -10.4796
  22   2.0000      -0.372239       -10.1291
  23   2.0000      -0.359549        -9.7838
  24   2.0000      -0.348885        -9.4936
  25   2.0000      -0.339571        -9.2402
  26   2.0000      -0.309629        -8.4254
  27   2.0000      -0.305398        -8.3103
  28   2.0000      -0.302088        -8.2202
  29   2.0000      -0.301348        -8.2001
  30   2.0000      -0.278313        -7.5733
  31   2.0000      -0.252372        -6.8674
  32   0.0000      -0.022270        -0.6060
  33   0.0000       0.077483         2.1084
  34   0.0000       0.098400         2.6776
  35   0.0000       0.118355         3.2206
  36   0.0000       0.128349         3.4926

MULLIKEN ATOMIC CHARGES
-----------------------
   0 C :   -0.529647
   1 C :   -0.218526
   2 C :   -0.313046
   3 C :    0.387054
   4 O :   -0.513092
   5 O :   -0.196570
   6 C :   -0.142333
   7 C :   -0.496689
   8 H :    0.160277
   9 H :    0.159255
  10 H :    0.160917
  11 H :    0.150045
  12 H :    0.160740
  13 H :    0.199581
  14 H :    0.182652
  15 H :    0.171299
  16 H :    0.173567
  17 H :    0.168704
  18 H :    0.170287
  19 H :    0.165528
Sum of atomic charges:    0.0000000

LOEWDIN ATOMIC CHARGES
----------------------
   0 C :   -0.424133
   1 C :   -0.297639
   2 C :   -0.229300
   3 C :    0.368515
   4 O :   -0.498396
   5 O :   -0.599892
   6 C :    0.031000
   7 C :   -0.393519
   8 H :    0.155637
   9 H :    0.155000
  10 H :    0.156234
  11 H :    0.164368
  12 H :    0.160008
  13 H :    0.195212
  14 H :    0.186737
  15 H :    0.189140
  16 H :    0.188974
  17 H :    0.162448
  18 H :    0.167699
  19 H :    0.161909

  Mayer bond orders larger than 0.100000
B(  0-C ,  1-C ) :   0.9072 B(  0-C ,  8-H ) :   0.9672 B(  0-C ,  9-H ) :   0.9779
B(  0-C , 10-H ) :   0.9732 B(  1-C ,  2-C ) :   0.8850 B(  1-C , 11-H ) :   0.9682
B(  1-C , 12-H ) :   0.9598 B(  2-C ,  3-C ) :   0.9590 B(  2-C , 13-H ) :   0.9129
B(  2-C , 14-H ) :   0.9873 B(  3-C ,  4-O ) :   1.7735 B(  3-C ,  5-O ) :   1.0784
B(  5-O ,  6-C ) :   0.8017 B(  6-C ,  7-C ) :   0.9355 B(  6-C , 15-H ) :   0.9636
B(  6-C , 16-H ) :   0.9520 B(  7-C , 17-H ) :   0.9696 B(  7-C , 18-H ) :   0.9601
B(  7-C , 19-H ) :   0.9695

Dispersion correction           -0.005096044
FINAL SINGLE POINT ENERGY      -386.241776882951

DIPOLE MOMENT
-------------

Method             : SCF
Type of density    : Electron Density
Multiplicity       :   1
Irrep              :   0
Energy             :  -386.2484362561741023 Eh
Relativity type    :
Basis              : AO
                                X                 Y                 Z
Electronic contribution:      2.198215701      -0.344908477      -0.718298502
Nuclear contribution   :     -1.898237657      -0.313489852       1.502034892
                        -----------------------------------------
Total Dipole Moment    :      0.299978044      -0.658398329       0.783736390
                        -----------------------------------------
Magnitude (a.u.)       :      1.066638606
Magnitude (Debye)      :      2.711179875

Rotational constants in cm-1:             0.168656             0.032446             0.032232
Rotational constants in MHz :          5056.167544           972.715589           966.294168

                             ****ORCA TERMINATED NORMALLY****
TOTAL RUN TIME: 0 days 0 hours 0 minutes 39 seconds 67 msec
