                         Program Version 6.0.0  -   RELEASE  -
|  1> ! pbe def2-sv(p) def2/J RI DEFGRID1 loosescf d4 GCP(DFT/SV(P)) printgap
|  2> %output
|  3>     printlevel normal
|  4> end
|  5> * xyz 0 1
|  6> C -4.6265258088 -1.1476825014 -0.0880743771
|  7> C -3.8386839157 -2.289204197 -0.1418189159
|  8> C -2.4605588598 -2.1803793531 -0.1262550802
|  9> C -1.8449582694 -0.9322507094 -0.0572693569
| 10> C -2.64091607 0.2176701208 -0.0033090001
| 11> C -4.0294255365 0.0967815041 -0.019187313
| 12> C -2.0316084958 1.5517948406 0.069554794
| 13> O -2.7190935479 2.5698491998 0.1199323987
| 14> C -0.5595522171 1.6105937059 0.0792547902
| 15> C 0.0183012771 2.8667589916 0.1438871688
| 16> C 1.4042129318 3.0069661402 0.1570160226
| 17> C 2.208146154 1.9003115349 0.106119444
| 18> C 1.6616560001 0.5949318167 0.03954097
| 19> C 0.2406843862 0.4448683502 0.0253087529
| 20> C -0.3703338105 -0.8641806923 -0.0435161918
| 21> O 0.2813125049 -1.9232158957 -0.0914365187
| 22> N 2.462821822 -0.4743441779 -0.0090943594
| 23> C 3.9027609279 -0.4503188808 -0.0042267295
| 24> C 4.4479053025 -1.8764338601 -0.061804069
| 25> O 5.8570551734 -1.7959355014 -0.0635315533
| 26> H -5.7019346031 -1.2295249269 -0.1000925961
| 27> H -4.2997676566 -3.2629053444 -0.1959091989
| 28> H -1.8300952703 -3.056241149 -0.1671700776
| 29> H -4.6173096349 1.0017570652 0.0236980829
| 30> H -0.6314673519 3.727448197 0.1831889072
| 31> H 1.8405001717 3.9920934545 0.2073967959
| 32> H 3.2788146511 2.0140729895 0.1162265889
| 33> H 1.9928535397 -1.3758592069 -0.0579825136
| 34> H 4.2837014639 0.0287560409 0.9047453543
| 35> H 4.2890710507 0.1016142119 -0.8688033066
| 36> H 4.0866116181 -2.3695634433 -0.9737835095
| 37> H 4.0925287213 -2.4403367817 0.8104055747
| 38> H 6.2317914118 -2.686060637 -0.0957772539
| 39> *
| 40>
| 41>                          ****END OF INPUT****

CARTESIAN COORDINATES (ANGSTROEM)
---------------------------------
  C     -4.626526   -1.147683   -0.088074
  C     -3.838684   -2.289204   -0.141819
  C     -2.460559   -2.180379   -0.126255
  C     -1.844958   -0.932251   -0.057269
  C     -2.640916    0.217670   -0.003309
  C     -4.029426    0.096782   -0.019187
  C     -2.031608    1.551795    0.069555
  O     -2.719094    2.569849    0.119932
  C     -0.559552    1.610594    0.079255
  C      0.018301    2.866759    0.143887
  C      1.404213    3.006966    0.157016
  C      2.208146    1.900312    0.106119
  C      1.661656    0.594932    0.039541
  C      0.240684    0.444868    0.025309
  C     -0.370334   -0.864181   -0.043516
  O      0.281313   -1.923216   -0.091437
  N      2.462822   -0.474344   -0.009094
  C      3.902761   -0.450319   -0.004227
  C      4.447905   -1.876434   -0.061804
  O      5.857055   -1.795936   -0.063532
  H     -5.701935   -1.229525   -0.100093
  H     -4.299768   -3.262905   -0.195909
  H     -1.830095   -3.056241   -0.167170
  H     -4.617310    1.001757    0.023698
  H     -0.631467    3.727448    0.183189
  H      1.840500    3.992093    0.207397
  H      3.278815    2.014073    0.116227
  H      1.992854   -1.375859   -0.057983
  H      4.283701    0.028756    0.904745
  H      4.289071    0.101614   -0.868803
  H      4.086612   -2.369563   -0.973784
  H      4.092529   -2.440337    0.810406
  H      6.231791   -2.686061   -0.095777

 Total Charge           Charge          ....    0
 Multiplicity           Mult            ....    1
 Number of Electrons    NEL             ....  140
 Basis Dimension        Dim             ....  306

ORBITAL ENERGIES
----------------

  NO   OCC          E(Eh)            E(eV)
   0   2.0000     -18.759597      -510.4746
   1   2.0000     -18.747769      -510.1527
   2   2.0000     -18.741272      -509.9759
   3   2.0000     -14.019037      -381.4774
   4   2.0000      -9.976351      -271.4703
   5   2.0000      -9.972706      -271.3711
   6   2.0000      -9.956838      -270.9393
   7   2.0000      -9.950933      -270.7787
   8   2.0000      -9.934816      -270.3401
   9   2.0000      -9.912502      -269.7329
  10   2.0000      -9.910492      -269.6782
  11   2.0000      -9.910215      -269.6707
  12   2.0000      -9.910112      -269.6679
  13   2.0000      -9.907915      -269.6081
  14   2.0000      -9.907867      -269.6068
  15   2.0000      -9.907104      -269.5860
  16   2.0000      -9.904384      -269.5120
  17   2.0000      -9.903845      -269.4973
  18   2.0000      -9.903307      -269.4827
  19   2.0000      -9.893679      -269.2207
  20   2.0000      -0.939696       -25.5704
  21   2.0000      -0.935649       -25.4603
  22   2.0000      -0.933735       -25.4082
  23   2.0000      -0.873209       -23.7612
  24   2.0000      -0.795866       -21.6566
  25   2.0000      -0.780681       -21.2434
  26   2.0000      -0.723894       -19.6982
  27   2.0000      -0.706018       -19.2117
  28   2.0000      -0.687026       -18.6949
  29   2.0000      -0.682578       -18.5739
  30   2.0000      -0.653342       -17.7783
  31   2.0000      -0.607984       -16.5441
  32   2.0000      -0.593794       -16.1579
  33   2.0000      -0.582585       -15.8530
  34   2.0000      -0.560958       -15.2644
  35   2.0000      -0.540091       -14.6966
  36   2.0000      -0.522426       -14.2159
  37   2.0000      -0.498698       -13.5703
  38   2.0000      -0.492291       -13.3959
  39   2.0000      -0.471925       -12.8417
  40   2.0000      -0.459839       -12.5129
  41   2.0000      -0.449226       -12.2241
  42   2.0000      -0.434101       -11.8125
  43   2.0000      -0.433678       -11.8010
  44   2.0000      -0.423075       -11.5125
  45   2.0000      -0.412487       -11.2243
  46   2.0000      -0.406011       -11.0481
  47   2.0000      -0.400339       -10.8938
  48   2.0000      -0.387329       -10.5398
  49   2.0000      -0.382045       -10.3960
  50   2.0000      -0.374349       -10.1865
  51   2.0000      -0.373923       -10.1750
  52   2.0000      -0.366954        -9.9853
  53   2.0000      -0.361121        -9.8266
  54   2.0000      -0.355706        -9.6793
  55   2.0000      -0.342884        -9.3303
  56   2.0000      -0.337682        -9.1888
  57   2.0000      -0.329677        -8.9710
  58   2.0000      -0.319113        -8.6835
  59   2.0000      -0.315502        -8.5853
  60   2.0000      -0.307294        -8.3619
  61   2.0000      -0.295973        -8.0538
  62   2.0000      -0.278461        -7.5773
  63   2.0000      -0.248189        -6.7536
  64   2.0000      -0.240863        -6.5542
  65   2.0000      -0.239840        -6.5264
  66   2.0000      -0.230796        -6.2803
  67   2.0000      -0.217085        -5.9072
  68   2.0000      -0.204224        -5.5572
  69   2.0000      -0.187832        -5.1112
  70   0.0000      -0.124977        -3.4008
  71   0.0000      -0.077288        -2.1031
  72   0.0000      -0.050136        -1.3643
  73   0.0000      -0.029568        -0.8046
  74   0.0000       0.014815         0.4031

MULLIKEN ATOMIC CHARGES
-----------------------
   0 C :   -0.021209
   1 C :   -0.017057
   2 C :   -0.133611
   3 C :    0.050843
   4 C :    0.037467
   5 C :   -0.125745
   6 C :    0.085679
   7 O :   -0.150682
   8 C :    0.020675
   9 C :   -0.139971
  10 C :   -0.003782
  11 C :   -0.161900
  12 C :    0.077360
  13 C :    0.049995
  14 C :    0.073637
  15 O :   -0.221433
  16 N :   -0.256839
  17 C :   -0.063918
  18 C :   -0.026327
  19 O :   -0.431967
  20 H :    0.062284
  21 H :    0.061574
  22 H :    0.057566
  23 H :    0.058182
  24 H :    0.055213
  25 H :    0.060258
  26 H :    0.046773
  27 H :    0.249797
  28 H :    0.110723
  29 H :    0.110724
  30 H :    0.089673
  31 H :    0.089721
  32 H :    0.306301
Sum of atomic charges:    0.0000000

LOEWDIN ATOMIC CHARGES
----------------------
   0 C :   -0.108096
   1 C :   -0.105517
   2 C :   -0.089048
   3 C :   -0.044636
   4 C :   -0.053249
   5 C :   -0.083030
   6 C :    0.058630
   7 O :   -0.131344
   8 C :   -0.045116
   9 C :   -0.111294
  10 C :   -0.095234
  11 C :   -0.145800
  12 C :    0.035431
  13 C :   -0.090056
  14 C :    0.056792
  15 O :   -0.180290
  16 N :   -0.132267
  17 C :   -0.166063
  18 C :   -0.125304
  19 O :   -0.343049
  20 H :    0.128606
  21 H :    0.128315
  22 H :    0.134450
  23 H :    0.135809
  24 H :    0.134787
  25 H :    0.129985
  26 H :    0.131199
  27 H :    0.240647
  28 H :    0.120418
  29 H :    0.120367
  30 H :    0.101357
  31 H :    0.101472
  32 H :    0.291127

  Mayer bond orders larger than 0.100000
B(  0-C ,  1-C ) :   1.3277 B(  0-C ,  5-C ) :   1.3362 B(  0-C , 20-H ) :   0.9668
B(  1-C ,  2-C ) :   1.3356 B(  1-C , 21-H ) :   0.9666 B(  2-C ,  3-C ) :   1.3809
B(  2-C , 22-H ) :   0.9541 B(  3-C ,  4-C ) :   1.3357 B(  3-C , 14-C ) :   0.9808
B(  4-C ,  5-C ) :   1.3793 B(  4-C ,  6-C ) :   0.9554 B(  5-C , 23-H ) :   0.9567
B(  6-C ,  7-O ) :   2.1557 B(  6-C ,  8-C ) :   0.9497 B(  8-C ,  9-C ) :   1.4271
B(  8-C , 13-C ) :   1.3026 B(  9-C , 10-C ) :   1.2327 B(  9-C , 24-H ) :   0.9561
B( 10-C , 11-C ) :   1.3774 B( 10-C , 25-H ) :   0.9663 B( 11-C , 12-C ) :   1.2424
B( 11-C , 26-H ) :   0.9560 B( 12-C , 13-C ) :   1.2106 B( 12-C , 16-N ) :   1.4064
B( 13-C , 14-C ) :   1.0275 B( 14-C , 15-O ) :   1.9549 B( 15-O , 27-H ) :   0.1495
B( 16-N , 17-C ) :   0.9847 B( 16-N , 27-H ) :   0.7573 B( 17-C , 18-C ) :   1.1097
B( 17-C , 28-H ) :   0.9095 B( 17-C , 29-H ) :   0.9098 B( 18-C , 19-O ) :   1.1031
B( 18-C , 30-H ) :   0.9191 B( 18-C , 31-H ) :   0.9193 B( 19-O , 32-H ) :   0.8496

Dispersion correction           -0.045846679
FINAL SINGLE POINT ENERGY      -896.121990139850

DIPOLE MOMENT
-------------

Method             : SCF
Type of density    : Electron Density
Multiplicity       :   1
Irrep              :   0
Energy             :  -896.2191873351341656 Eh
Relativity type    :
Basis              : AO
                                X                 Y                 Z
Electronic contribution:    -11.360525027       4.168883297       0.156720664
Nuclear contribution   :     12.274745490      -5.230933522      -0.201203506
                        -----------------------------------------
Total Dipole Moment    :      0.914220464      -1.062050225      -0.044482842
                        -----------------------------------------
Magnitude (a.u.)       :      1.402044386
Magnitude (Debye)      :      3.563713616

Rotational constants in cm-1:             0.020769             0.007058             0.005278
Rotational constants in MHz :           622.628590           211.589455           158.238618

                             ****ORCA TERMINATED NORMALLY****
TOTAL RUN TIME: 0 days 0 hours 0 minutes 31 seconds 414 msec
