                         Program Version 6.0.0  -   RELEASE  -
|  1> ! r2scan-3c def2/J RI DEFGRID2 scfconv6 printgap
|  2> %output
|  3>     printlevel normal
|  4> end
|  5> * xyz 0 1
|  6> C 2.4635546576 -1.0930471954 0.145030534
|  7> C 2.5630397844 0.4042966761 -0.121315764
|  8> C 1.3734662301 1.2094398146 0.4051718467
|  9> C 0.0379971186 0.8726577333 -0.2775852146
| 10> C -0.78899795 -0.0975020351 0.5487587506
| 11> Cl -2.3306823238 -0.4900270097 -0.2952506956
| 12> H 3.3827318935 -1.5879969044 -0.1600099865
| 13> H 1.6441575577 -1.5358843211 -0.4146740105
| 14> H 2.3092531638 -1.2829022388 1.2048055893
| 15> H 3.4686165247 0.7865747354 0.3550441069
| 16> H 2.6616662838 0.5730708884 -1.1957491256
| 17> H 1.5904306262 2.2662365461 0.2445841891
| 18> H 1.2805505732 1.0542132533 1.4813341906
| 19> H 0.2241014356 0.4461876981 -1.2642397894
| 20> H -0.5449837306 1.7840858548 -0.4186283638
| 21> H -0.2810985028 -1.046071683 0.7044740289
| 22> H -1.0724407275 0.3368440996 1.5060201957
| 23> *
| 24>
| 25>                          ****END OF INPUT****

CARTESIAN COORDINATES (ANGSTROEM)
---------------------------------
  C      2.463555   -1.093047    0.145031
  C      2.563040    0.404297   -0.121316
  C      1.373466    1.209440    0.405172
  C      0.037997    0.872658   -0.277585
  C     -0.788998   -0.097502    0.548759
  Cl    -2.330682   -0.490027   -0.295251
  H      3.382732   -1.587997   -0.160010
  H      1.644158   -1.535884   -0.414674
  H      2.309253   -1.282902    1.204806
  H      3.468617    0.786575    0.355044
  H      2.661666    0.573071   -1.195749
  H      1.590431    2.266237    0.244584
  H      1.280551    1.054213    1.481334
  H      0.224101    0.446188   -1.264240
  H     -0.544984    1.784086   -0.418628
  H     -0.281099   -1.046072    0.704474
  H     -1.072441    0.336844    1.506020

 Total Charge           Charge          ....    0
 Multiplicity           Mult            ....    1
 Number of Electrons    NEL             ....   58
 Basis Dimension        Dim             ....  177

ORBITAL ENERGIES
----------------

  NO   OCC          E(Eh)            E(eV)
   0   2.0000    -101.195723     -2753.6756
   1   2.0000     -10.090243      -274.5695
   2   2.0000     -10.040053      -273.2037
   3   2.0000     -10.036593      -273.1096
   4   2.0000     -10.033462      -273.0244
   5   2.0000     -10.024361      -272.7767
   6   2.0000      -9.351754      -254.4742
   7   2.0000      -7.097897      -193.1436
   8   2.0000      -7.087848      -192.8702
   9   2.0000      -7.087814      -192.8692
  10   2.0000      -0.820187       -22.3184
  11   2.0000      -0.771495       -20.9934
  12   2.0000      -0.709982       -19.3196
  13   2.0000      -0.645078       -17.5535
  14   2.0000      -0.581619       -15.8267
  15   2.0000      -0.545709       -14.8495
  16   2.0000      -0.460372       -12.5274
  17   2.0000      -0.434119       -11.8130
  18   2.0000      -0.420711       -11.4481
  19   2.0000      -0.396938       -10.8012
  20   2.0000      -0.385556       -10.4915
  21   2.0000      -0.359785        -9.7902
  22   2.0000      -0.354049        -9.6342
  23   2.0000      -0.338009        -9.1977
  24   2.0000      -0.308933        -8.4065
  25   2.0000      -0.304248        -8.2790
  26   2.0000      -0.295764        -8.0481
  27   2.0000      -0.261952        -7.1281
  28   2.0000      -0.260785        -7.0963
  29   0.0000       0.010063         0.2738
  30   0.0000       0.084905         2.3104
  31   0.0000       0.091884         2.5003
  32   0.0000       0.106599         2.9007
  33   0.0000       0.117718         3.2033

MULLIKEN ATOMIC CHARGES
-----------------------
   0 C :   -0.503190
   1 C :   -0.252587
   2 C :   -0.256950
   3 C :   -0.281838
   4 C :   -0.186116
   5 Cl:   -0.202948
   6 H :    0.149946
   7 H :    0.153800
   8 H :    0.150664
   9 H :    0.140977
  10 H :    0.148167
  11 H :    0.150732
  12 H :    0.141962
  13 H :    0.159538
  14 H :    0.157993
  15 H :    0.165798
  16 H :    0.164052
Sum of atomic charges:   -0.0000000

LOEWDIN ATOMIC CHARGES
----------------------
   0 C :   -0.429144
   1 C :   -0.314336
   2 C :   -0.309029
   3 C :   -0.330654
   4 C :   -0.324113
   5 Cl:   -0.006034
   6 H :    0.152842
   7 H :    0.149842
   8 H :    0.149738
   9 H :    0.152713
  10 H :    0.152369
  11 H :    0.159682
  12 H :    0.155902
  13 H :    0.162714
  14 H :    0.162417
  15 H :    0.158849
  16 H :    0.156242

  Mayer bond orders larger than 0.100000
B(  0-C ,  1-C ) :   0.8690 B(  0-C ,  6-H ) :   0.9662 B(  0-C ,  7-H ) :   0.9775
B(  0-C ,  8-H ) :   0.9798 B(  1-C ,  2-C ) :   0.9101 B(  1-C ,  9-H ) :   0.9697
B(  1-C , 10-H ) :   0.9951 B(  2-C ,  3-C ) :   0.8228 B(  2-C , 11-H ) :   0.9638
B(  2-C , 12-H ) :   0.9822 B(  3-C ,  4-C ) :   0.9471 B(  3-C , 13-H ) :   0.9728
B(  3-C , 14-H ) :   0.9605 B(  4-C ,  5-Cl) :   0.9864 B(  4-C , 15-H ) :   0.9518
B(  4-C , 16-H ) :   0.9675

Dispersion correction           -0.004467123
FINAL SINGLE POINT ENERGY      -657.265004000161

DIPOLE MOMENT
-------------

Method             : SCF
Type of density    : Electron Density
Multiplicity       :   1
Irrep              :   0
Energy             :  -657.2708281131253898 Eh
Relativity type    :
Basis              : AO
                                X                 Y                 Z
Electronic contribution:    -16.000883051      -2.059483480      -2.001262246
Nuclear contribution   :     16.884602489       2.341127080       2.312928329
                        -----------------------------------------
Total Dipole Moment    :      0.883719438       0.281643601       0.311666083
                        -----------------------------------------
Magnitude (a.u.)       :      0.978477854
Magnitude (Debye)      :      2.487093052

Rotational constants in cm-1:             0.200424             0.037998             0.034323
Rotational constants in MHz :          6008.554167          1139.141036          1028.976156

                             ****ORCA TERMINATED NORMALLY****
TOTAL RUN TIME: 0 days 0 hours 0 minutes 19 seconds 664 msec
