                         Program Version 6.0.0  -   RELEASE  -
|  1> ! r2scan-3c def2/J RI DEFGRID2 scfconv6 printgap
|  2> %output
|  3>     printlevel normal
|  4> end
|  5> %cpcm
|  6>     smd true
|  7>     smdsolvent "water"
|  8> end
|  9> * xyz 0 1
| 10> C 2.4635546576 -1.0930471954 0.145030534
| 11> C 2.5630397844 0.4042966761 -0.121315764
| 12> C 1.3734662301 1.2094398146 0.4051718467
| 13> C 0.0379971186 0.8726577333 -0.2775852146
| 14> C -0.78899795 -0.0975020351 0.5487587506
| 15> Cl -2.3306823238 -0.4900270097 -0.2952506956
| 16> H 3.3827318935 -1.5879969044 -0.1600099865
| 17> H 1.6441575577 -1.5358843211 -0.4146740105
| 18> H 2.3092531638 -1.2829022388 1.2048055893
| 19> H 3.4686165247 0.7865747354 0.3550441069
| 20> H 2.6616662838 0.5730708884 -1.1957491256
| 21> H 1.5904306262 2.2662365461 0.2445841891
| 22> H 1.2805505732 1.0542132533 1.4813341906
| 23> H 0.2241014356 0.4461876981 -1.2642397894
| 24> H -0.5449837306 1.7840858548 -0.4186283638
| 25> H -0.2810985028 -1.046071683 0.7044740289
| 26> H -1.0724407275 0.3368440996 1.5060201957
| 27> *
| 28>
| 29>                          ****END OF INPUT****

CARTESIAN COORDINATES (ANGSTROEM)
---------------------------------
  C      2.463555   -1.093047    0.145031
  C      2.563040    0.404297   -0.121316
  C      1.373466    1.209440    0.405172
  C      0.037997    0.872658   -0.277585
  C     -0.788998   -0.097502    0.548759
  Cl    -2.330682   -0.490027   -0.295251
  H      3.382732   -1.587997   -0.160010
  H      1.644158   -1.535884   -0.414674
  H      2.309253   -1.282902    1.204806
  H      3.468617    0.786575    0.355044
  H      2.661666    0.573071   -1.195749
  H      1.590431    2.266237    0.244584
  H      1.280551    1.054213    1.481334
  H      0.224101    0.446188   -1.264240
  H     -0.544984    1.784086   -0.418628
  H     -0.281099   -1.046072    0.704474
  H     -1.072441    0.336844    1.506020

 Total Charge           Charge          ....    0
 Multiplicity           Mult            ....    1
 Number of Electrons    NEL             ....   58
 Basis Dimension        Dim             ....  177

ORBITAL ENERGIES
----------------

  NO   OCC          E(Eh)            E(eV)
   0   2.0000    -101.197599     -2753.7267
   1   2.0000     -10.079776      -274.2846
   2   2.0000     -10.026734      -272.8413
   3   2.0000     -10.020311      -272.6665
   4   2.0000     -10.017242      -272.5830
   5   2.0000     -10.007418      -272.3157
   6   2.0000      -9.354021      -254.5358
   7   2.0000      -7.099745      -193.1939
   8   2.0000      -7.090286      -192.9365
   9   2.0000      -7.090260      -192.9358
  10   2.0000      -0.816268       -22.2118
  11   2.0000      -0.758187       -20.6313
  12   2.0000      -0.697620       -18.9832
  13   2.0000      -0.632106       -17.2005
  14   2.0000      -0.569000       -15.4833
  15   2.0000      -0.530038       -14.4231
  16   2.0000      -0.446415       -12.1476
  17   2.0000      -0.418810       -11.3964
  18   2.0000      -0.409306       -11.1378
  19   2.0000      -0.385677       -10.4948
  20   2.0000      -0.372670       -10.1409
  21   2.0000      -0.347952        -9.4683
  22   2.0000      -0.339836        -9.2474
  23   2.0000      -0.323508        -8.8031
  24   2.0000      -0.294838        -8.0229
  25   2.0000      -0.288700        -7.8559
  26   2.0000      -0.281453        -7.6587
  27   2.0000      -0.262924        -7.1545
  28   2.0000      -0.261161        -7.1065
  29   0.0000       0.014222         0.3870
  30   0.0000       0.098891         2.6910
  31   0.0000       0.105807         2.8792
  32   0.0000       0.122804         3.3417
  33   0.0000       0.133694         3.6380

MULLIKEN ATOMIC CHARGES
-----------------------
   0 C :   -0.532815
   1 C :   -0.262608
   2 C :   -0.274795
   3 C :   -0.295837
   4 C :   -0.188308
   5 Cl:   -0.253077
   6 H :    0.156072
   7 H :    0.163469
   8 H :    0.160477
   9 H :    0.147663
  10 H :    0.153993
  11 H :    0.160551
  12 H :    0.157330
  13 H :    0.167820
  14 H :    0.165773
  15 H :    0.186039
  16 H :    0.188254
Sum of atomic charges:   -0.0000000

LOEWDIN ATOMIC CHARGES
----------------------
   0 C :   -0.436247
   1 C :   -0.316259
   2 C :   -0.308249
   3 C :   -0.331966
   4 C :   -0.318057
   5 Cl:   -0.039681
   6 H :    0.152843
   7 H :    0.152898
   8 H :    0.153023
   9 H :    0.153987
  10 H :    0.153718
  11 H :    0.162408
  12 H :    0.161135
  13 H :    0.164378
  14 H :    0.163629
  15 H :    0.166893
  16 H :    0.165545

  Mayer bond orders larger than 0.100000
B(  0-C ,  1-C ) :   0.8670 B(  0-C ,  6-H ) :   0.9657 B(  0-C ,  7-H ) :   0.9754
B(  0-C ,  8-H ) :   0.9761 B(  1-C ,  2-C ) :   0.9046 B(  1-C ,  9-H ) :   0.9704
B(  1-C , 10-H ) :   0.9947 B(  2-C ,  3-C ) :   0.8282 B(  2-C , 11-H ) :   0.9641
B(  2-C , 12-H ) :   0.9818 B(  3-C ,  4-C ) :   0.9432 B(  3-C , 13-H ) :   0.9729
B(  3-C , 14-H ) :   0.9597 B(  4-C ,  5-Cl) :   0.9410 B(  4-C , 15-H ) :   0.9474
B(  4-C , 16-H ) :   0.9587

Dispersion correction           -0.004467123
FINAL SINGLE POINT ENERGY      -657.266682966304

DIPOLE MOMENT
-------------

Method             : SCF
Type of density    : Electron Density
Multiplicity       :   1
Irrep              :   0
Energy             :  -657.2725070792686211 Eh
Relativity type    :
Basis              : AO
                                X                 Y                 Z
Electronic contribution:    -15.801560037      -1.991530795      -1.854177536
Nuclear contribution   :     16.884602489       2.341127080       2.312928329
                        -----------------------------------------
Total Dipole Moment    :      1.083042452       0.349596286       0.458750793
                        -----------------------------------------
Magnitude (a.u.)       :      1.227049635
Magnitude (Debye)      :      3.118912308

Rotational constants in cm-1:             0.200424             0.037998             0.034323
Rotational constants in MHz :          6008.554167          1139.141036          1028.976156

                             ****ORCA TERMINATED NORMALLY****
TOTAL RUN TIME: 0 days 0 hours 0 minutes 25 seconds 414 msec
