                         Program Version 6.0.0  -   RELEASE  -
|  1> ! pbe def2-sv(p) def2/J RI DEFGRID1 loosescf d4 GCP(DFT/SV(P)) printgap
|  2> %output
|  3>     printlevel normal
|  4> end
|  5> * xyz 0 1
|  6> C 1.5919307922 -0.8460277538 -0.4438105659
|  7> C 1.3024672511 0.5697201228 0.0385326548
|  8> C 0.0162720039 0.6709133859 0.8596436395
|  9> C -1.266410194 0.551641019 0.0337622554
| 10> N -1.4915132517 -0.807257894 -0.4431143206
| 11> H 1.7394339458 -1.511572095 0.4039647965
| 12> H 0.7570791689 -1.2150992485 -1.0311353172
| 13> H 2.4925804783 -0.8615274372 -1.0530607944
| 14> H 2.1359628754 0.9159545467 0.655131378
| 15> H 1.2276656465 1.2384420703 -0.8213609274
| 16> H 0.0179304567 -0.1023414454 1.6312590709
| 17> H -0.0037859112 1.6416873378 1.3600545905
| 18> H -1.1926381367 1.1991513815 -0.8450255711
| 19> H -2.1060458552 0.9218878857 0.6499066947
| 20> H -2.363514163 -0.8483612552 -0.9581992663
| 21> H -1.5716458196 -1.4361152397 0.3494358189
| 22> *
| 23>
| 24>                          ****END OF INPUT****

CARTESIAN COORDINATES (ANGSTROEM)
---------------------------------
  C      1.591931   -0.846028   -0.443811
  C      1.302467    0.569720    0.038533
  C      0.016272    0.670913    0.859644
  C     -1.266410    0.551641    0.033762
  N     -1.491513   -0.807258   -0.443114
  H      1.739434   -1.511572    0.403965
  H      0.757079   -1.215099   -1.031135
  H      2.492580   -0.861527   -1.053061
  H      2.135963    0.915955    0.655131
  H      1.227666    1.238442   -0.821361
  H      0.017930   -0.102341    1.631259
  H     -0.003786    1.641687    1.360055
  H     -1.192638    1.199151   -0.845026
  H     -2.106046    0.921888    0.649907
  H     -2.363514   -0.848361   -0.958199
  H     -1.571646   -1.436115    0.349436

 Total Charge           Charge          ....    0
 Multiplicity           Mult            ....    1
 Number of Electrons    NEL             ....   42
 Basis Dimension        Dim             ....   92

ORBITAL ENERGIES
----------------

  NO   OCC          E(Eh)            E(eV)
   0   2.0000     -13.957643      -379.8068
   1   2.0000      -9.905508      -269.5426
   2   2.0000      -9.878885      -268.8181
   3   2.0000      -9.873138      -268.6617
   4   2.0000      -9.851354      -268.0690
   5   2.0000      -0.794420       -21.6173
   6   2.0000      -0.697491       -18.9797
   7   2.0000      -0.624461       -16.9924
   8   2.0000      -0.548591       -14.9279
   9   2.0000      -0.501973       -13.6594
  10   2.0000      -0.435604       -11.8534
  11   2.0000      -0.412699       -11.2301
  12   2.0000      -0.401160       -10.9161
  13   2.0000      -0.358471        -9.7545
  14   2.0000      -0.355700        -9.6791
  15   2.0000      -0.325793        -8.8653
  16   2.0000      -0.306755        -8.3472
  17   2.0000      -0.283715        -7.7203
  18   2.0000      -0.280326        -7.6281
  19   2.0000      -0.273145        -7.4327
  20   2.0000      -0.178648        -4.8613
  21   0.0000       0.031920         0.8686
  22   0.0000       0.061561         1.6752
  23   0.0000       0.067153         1.8273
  24   0.0000       0.086259         2.3472
  25   0.0000       0.102168         2.7801

MULLIKEN ATOMIC CHARGES
-----------------------
   0 C :   -0.288191
   1 C :   -0.171237
   2 C :   -0.176926
   3 C :   -0.072614
   4 N :   -0.449877
   5 H :    0.080517
   6 H :    0.127444
   7 H :    0.089235
   8 H :    0.080928
   9 H :    0.077058
  10 H :    0.074302
  11 H :    0.082074
  12 H :    0.077713
  13 H :    0.065146
  14 H :    0.203557
  15 H :    0.200870
Sum of atomic charges:   -0.0000000

LOEWDIN ATOMIC CHARGES
----------------------
   0 C :   -0.356889
   1 C :   -0.230012
   2 C :   -0.234024
   3 C :   -0.174817
   4 N :   -0.404450
   5 H :    0.109965
   6 H :    0.124474
   7 H :    0.111976
   8 H :    0.111221
   9 H :    0.112244
  10 H :    0.111179
  11 H :    0.117525
  12 H :    0.109310
  13 H :    0.087457
  14 H :    0.203953
  15 H :    0.200889

  Mayer bond orders larger than 0.100000
B(  0-C ,  1-C ) :   1.1639 B(  0-C ,  5-H ) :   0.9546 B(  0-C ,  6-H ) :   0.9274
B(  0-C ,  7-H ) :   0.9489 B(  1-C ,  2-C ) :   1.1214 B(  1-C ,  8-H ) :   0.9304
B(  1-C ,  9-H ) :   0.9262 B(  2-C ,  3-C ) :   1.1239 B(  2-C , 10-H ) :   0.9237
B(  2-C , 11-H ) :   0.9207 B(  3-C ,  4-N ) :   1.1023 B(  3-C , 12-H ) :   0.9253
B(  3-C , 13-H ) :   0.9229 B(  4-N , 14-H ) :   0.9041 B(  4-N , 15-H ) :   0.8997

Dispersion correction           -0.010715191
FINAL SINGLE POINT ENERGY      -213.243317192341

DIPOLE MOMENT
-------------

Method             : SCF
Type of density    : Electron Density
Multiplicity       :   1
Irrep              :   0
Energy             :  -213.3036064439557435 Eh
Relativity type    :
Basis              : AO
                                X                 Y                 Z
Electronic contribution:     -1.614438590       0.122950719      -0.065636879
Nuclear contribution   :      1.054809091      -0.058724598       0.317464333
                        -----------------------------------------
Total Dipole Moment    :     -0.559629499       0.064226121       0.251827454
                        -----------------------------------------
Magnitude (a.u.)       :      0.617030986
Magnitude (Debye)      :      1.568368127

Rotational constants in cm-1:             0.241912             0.117533             0.089285
Rotational constants in MHz :          7252.326514          3523.563364          2676.700505

                             ****ORCA TERMINATED NORMALLY****
TOTAL RUN TIME: 0 days 0 hours 0 minutes 6 seconds 580 msec
