                         Program Version 6.0.0  -   RELEASE  -
|  1> ! r2scan-3c def2/J RI DEFGRID2 scfconv6 printgap
|  2> %output
|  3>     printlevel normal
|  4> end
|  5> * xyz 0 1
|  6> C -3.3154401911 -1.0876255433 0.1050982681
|  7> C -1.8699851438 -0.7226917901 0.4176431428
|  8> C -1.3558104793 0.3697500843 -0.5322299503
|  9> C 0.064012463 0.709662893 -0.1688328806
| 10> O 0.390777111 1.5938462357 0.5960272715
| 11> O 0.9261037708 -0.1002011005 -0.769909892
| 12> C 2.3246274737 0.0404614502 -0.4688342934
| 13> C 2.7034764961 -0.7669372741 0.7632854723
| 14> H -3.6613523356 -1.8609949579 0.7853750677
| 15> H -3.9597334087 -0.2189951874 0.2136154222
| 16> H -3.4026144091 -1.457604659 -0.9131178763
| 17> H -1.2363881471 -1.6058556178 0.3179101703
| 18> H -1.792347786 -0.3639318832 1.44620898
| 19> H -1.9678157816 1.2654201159 -0.4300800835
| 20> H -1.3849807747 0.0064248416 -1.5585893276
| 21> H 2.8359932072 -0.3280742957 -1.3584933824
| 22> H 2.5428156194 1.1017741826 -0.3159680073
| 23> H 3.7728159096 -0.6886771154 0.9296939908
| 24> H 2.1811536261 -0.3810553299 1.6359918118
| 25> H 2.4372413727 -1.8111551998 0.6237634492
| 26> *
| 27>
| 28>                          ****END OF INPUT****

CARTESIAN COORDINATES (ANGSTROEM)
---------------------------------
  C     -3.315440   -1.087626    0.105098
  C     -1.869985   -0.722692    0.417643
  C     -1.355810    0.369750   -0.532230
  C      0.064012    0.709663   -0.168833
  O      0.390777    1.593846    0.596027
  O      0.926104   -0.100201   -0.769910
  C      2.324627    0.040461   -0.468834
  C      2.703476   -0.766937    0.763285
  H     -3.661352   -1.860995    0.785375
  H     -3.959733   -0.218995    0.213615
  H     -3.402614   -1.457605   -0.913118
  H     -1.236388   -1.605856    0.317910
  H     -1.792348   -0.363932    1.446209
  H     -1.967816    1.265420   -0.430080
  H     -1.384981    0.006425   -1.558589
  H      2.835993   -0.328074   -1.358493
  H      2.542816    1.101774   -0.315968
  H      3.772816   -0.688677    0.929694
  H      2.181154   -0.381055    1.635992
  H      2.437241   -1.811155    0.623763

 Total Charge           Charge          ....    0
 Multiplicity           Mult            ....    1
 Number of Electrons    NEL             ....   64
 Basis Dimension        Dim             ....  222

ORBITAL ENERGIES
----------------

  NO   OCC          E(Eh)            E(eV)
   0   2.0000     -18.995309      -516.8886
   1   2.0000     -18.925833      -514.9981
   2   2.0000     -10.150010      -276.1958
   3   2.0000     -10.090408      -274.5740
   4   2.0000     -10.040078      -273.2044
   5   2.0000     -10.039057      -273.1766
   6   2.0000     -10.028556      -272.8909
   7   2.0000     -10.023826      -272.7622
   8   2.0000      -1.070091       -29.1187
   9   2.0000      -0.973466       -26.4893
  10   2.0000      -0.775278       -21.0964
  11   2.0000      -0.739477       -20.1222
  12   2.0000      -0.680942       -18.5294
  13   2.0000      -0.621311       -16.9067
  14   2.0000      -0.569451       -15.4956
  15   2.0000      -0.521608       -14.1937
  16   2.0000      -0.472252       -12.8506
  17   2.0000      -0.456298       -12.4165
  18   2.0000      -0.439281       -11.9535
  19   2.0000      -0.423002       -11.5105
  20   2.0000      -0.410599       -11.1730
  21   2.0000      -0.391269       -10.6470
  22   2.0000      -0.370679       -10.0867
  23   2.0000      -0.361139        -9.8271
  24   2.0000      -0.359908        -9.7936
  25   2.0000      -0.344701        -9.3798
  26   2.0000      -0.326287        -8.8787
  27   2.0000      -0.312124        -8.4933
  28   2.0000      -0.309865        -8.4319
  29   2.0000      -0.304706        -8.2915
  30   2.0000      -0.269426        -7.3314
  31   2.0000      -0.232136        -6.3167
  32   0.0000      -0.013437        -0.3656
  33   0.0000       0.077325         2.1041
  34   0.0000       0.091341         2.4855
  35   0.0000       0.102883         2.7996
  36   0.0000       0.120948         3.2912

MULLIKEN ATOMIC CHARGES
-----------------------
   0 C :   -0.473220
   1 C :   -0.233083
   2 C :   -0.343613
   3 C :    0.422467
   4 O :   -0.430882
   5 O :   -0.183880
   6 C :   -0.138407
   7 C :   -0.468690
   8 H :    0.150683
   9 H :    0.146494
  10 H :    0.144831
  11 H :    0.147304
  12 H :    0.154183
  13 H :    0.162165
  14 H :    0.156429
  15 H :    0.147653
  16 H :    0.168938
  17 H :    0.147315
  18 H :    0.172062
  19 H :    0.151252
Sum of atomic charges:   -0.0000000

LOEWDIN ATOMIC CHARGES
----------------------
   0 C :   -0.419452
   1 C :   -0.287863
   2 C :   -0.229159
   3 C :    0.356079
   4 O :   -0.433735
   5 O :   -0.596519
   6 C :    0.027211
   7 C :   -0.391128
   8 H :    0.153053
   9 H :    0.151576
  10 H :    0.150750
  11 H :    0.158288
  12 H :    0.160528
  13 H :    0.177061
  14 H :    0.176250
  15 H :    0.177453
  16 H :    0.188666
  17 H :    0.159205
  18 H :    0.165193
  19 H :    0.156542

  Mayer bond orders larger than 0.100000
B(  0-C ,  1-C ) :   0.8960 B(  0-C ,  8-H ) :   0.9720 B(  0-C ,  9-H ) :   0.9835
B(  0-C , 10-H ) :   0.9851 B(  1-C ,  2-C ) :   0.9218 B(  1-C , 11-H ) :   0.9613
B(  1-C , 12-H ) :   0.9595 B(  2-C ,  3-C ) :   0.9648 B(  2-C , 13-H ) :   0.9783
B(  2-C , 14-H ) :   0.9800 B(  3-C ,  4-O ) :   1.8463 B(  3-C ,  5-O ) :   1.0286
B(  5-O ,  6-C ) :   0.8174 B(  6-C ,  7-C ) :   0.9320 B(  6-C , 15-H ) :   0.9626
B(  6-C , 16-H ) :   0.9680 B(  7-C , 17-H ) :   0.9653 B(  7-C , 18-H ) :   0.9716
B(  7-C , 19-H ) :   0.9738

Dispersion correction           -0.005032271
FINAL SINGLE POINT ENERGY      -386.235855110916

DIPOLE MOMENT
-------------

Method             : SCF
Type of density    : Electron Density
Multiplicity       :   1
Irrep              :   0
Energy             :  -386.2424777023271645 Eh
Relativity type    :
Basis              : AO
                                X                 Y                 Z
Electronic contribution:      3.456982243       5.184223445      -1.641793730
Nuclear contribution   :     -3.390908764      -5.928385455       1.288630050
                        -----------------------------------------
Total Dipole Moment    :      0.066073480      -0.744162010      -0.353163680
                        -----------------------------------------
Magnitude (a.u.)       :      0.826357904
Magnitude (Debye)      :      2.100434868

Rotational constants in cm-1:             0.130905             0.033403             0.030756
Rotational constants in MHz :          3924.447764          1001.394939           922.055498

                             ****ORCA TERMINATED NORMALLY****
TOTAL RUN TIME: 0 days 0 hours 0 minutes 31 seconds 105 msec
