                         Program Version 6.0.0  -   RELEASE  -
|  1> ! r2scan-3c def2/J RI DEFGRID2 scfconv6 printgap
|  2> %output
|  3>     printlevel normal
|  4> end
|  5> %cpcm
|  6>     smd true
|  7>     smdsolvent "water"
|  8> end
|  9> * xyz 0 1
| 10> C -3.3154401911 -1.0876255433 0.1050982681
| 11> C -1.8699851438 -0.7226917901 0.4176431428
| 12> C -1.3558104793 0.3697500843 -0.5322299503
| 13> C 0.064012463 0.709662893 -0.1688328806
| 14> O 0.390777111 1.5938462357 0.5960272715
| 15> O 0.9261037708 -0.1002011005 -0.769909892
| 16> C 2.3246274737 0.0404614502 -0.4688342934
| 17> C 2.7034764961 -0.7669372741 0.7632854723
| 18> H -3.6613523356 -1.8609949579 0.7853750677
| 19> H -3.9597334087 -0.2189951874 0.2136154222
| 20> H -3.4026144091 -1.457604659 -0.9131178763
| 21> H -1.2363881471 -1.6058556178 0.3179101703
| 22> H -1.792347786 -0.3639318832 1.44620898
| 23> H -1.9678157816 1.2654201159 -0.4300800835
| 24> H -1.3849807747 0.0064248416 -1.5585893276
| 25> H 2.8359932072 -0.3280742957 -1.3584933824
| 26> H 2.5428156194 1.1017741826 -0.3159680073
| 27> H 3.7728159096 -0.6886771154 0.9296939908
| 28> H 2.1811536261 -0.3810553299 1.6359918118
| 29> H 2.4372413727 -1.8111551998 0.6237634492
| 30> *
| 31>
| 32>                          ****END OF INPUT****

CARTESIAN COORDINATES (ANGSTROEM)
---------------------------------
  C     -3.315440   -1.087626    0.105098
  C     -1.869985   -0.722692    0.417643
  C     -1.355810    0.369750   -0.532230
  C      0.064012    0.709663   -0.168833
  O      0.390777    1.593846    0.596027
  O      0.926104   -0.100201   -0.769910
  C      2.324627    0.040461   -0.468834
  C      2.703476   -0.766937    0.763285
  H     -3.661352   -1.860995    0.785375
  H     -3.959733   -0.218995    0.213615
  H     -3.402614   -1.457605   -0.913118
  H     -1.236388   -1.605856    0.317910
  H     -1.792348   -0.363932    1.446209
  H     -1.967816    1.265420   -0.430080
  H     -1.384981    0.006425   -1.558589
  H      2.835993   -0.328074   -1.358493
  H      2.542816    1.101774   -0.315968
  H      3.772816   -0.688677    0.929694
  H      2.181154   -0.381055    1.635992
  H      2.437241   -1.811155    0.623763

 Total Charge           Charge          ....    0
 Multiplicity           Mult            ....    1
 Number of Electrons    NEL             ....   64
 Basis Dimension        Dim             ....  222

ORBITAL ENERGIES
----------------

  NO   OCC          E(Eh)            E(eV)
   0   2.0000     -19.001849      -517.0666
   1   2.0000     -18.942814      -515.4602
   2   2.0000     -10.161561      -276.5101
   3   2.0000     -10.083170      -274.3770
   4   2.0000     -10.034644      -273.0565
   5   2.0000     -10.030451      -272.9424
   6   2.0000     -10.018297      -272.6117
   7   2.0000     -10.012033      -272.4413
   8   2.0000      -1.078355       -29.3435
   9   2.0000      -0.988277       -26.8924
  10   2.0000      -0.769857       -20.9489
  11   2.0000      -0.732483       -19.9319
  12   2.0000      -0.674144       -18.3444
  13   2.0000      -0.616135       -16.7659
  14   2.0000      -0.561374       -15.2758
  15   2.0000      -0.519872       -14.1464
  16   2.0000      -0.472446       -12.8559
  17   2.0000      -0.461417       -12.5558
  18   2.0000      -0.439053       -11.9472
  19   2.0000      -0.425101       -11.5676
  20   2.0000      -0.408154       -11.1064
  21   2.0000      -0.384134       -10.4528
  22   2.0000      -0.363038        -9.8788
  23   2.0000      -0.357200        -9.7199
  24   2.0000      -0.355698        -9.6790
  25   2.0000      -0.339900        -9.2491
  26   2.0000      -0.320276        -8.7151
  27   2.0000      -0.305823        -8.3219
  28   2.0000      -0.303852        -8.2682
  29   2.0000      -0.300623        -8.1804
  30   2.0000      -0.276962        -7.5365
  31   2.0000      -0.248772        -6.7694
  32   0.0000      -0.022572        -0.6142
  33   0.0000       0.079293         2.1577
  34   0.0000       0.098769         2.6876
  35   0.0000       0.113078         3.0770
  36   0.0000       0.130598         3.5537

MULLIKEN ATOMIC CHARGES
-----------------------
   0 C :   -0.516976
   1 C :   -0.220115
   2 C :   -0.369368
   3 C :    0.461280
   4 O :   -0.515343
   5 O :   -0.202200
   6 C :   -0.144073
   7 C :   -0.492977
   8 H :    0.162428
   9 H :    0.159066
  10 H :    0.158998
  11 H :    0.157010
  12 H :    0.158059
  13 H :    0.176457
  14 H :    0.177532
  15 H :    0.173769
  16 H :    0.171685
  17 H :    0.170672
  18 H :    0.168037
  19 H :    0.166058
Sum of atomic charges:   -0.0000000

LOEWDIN ATOMIC CHARGES
----------------------
   0 C :   -0.424720
   1 C :   -0.285319
   2 C :   -0.227401
   3 C :    0.364758
   4 O :   -0.494591
   5 O :   -0.598559
   6 C :    0.031883
   7 C :   -0.393723
   8 H :    0.156394
   9 H :    0.154887
  10 H :    0.154889
  11 H :    0.161646
  12 H :    0.161478
  13 H :    0.182338
  14 H :    0.185437
  15 H :    0.188905
  16 H :    0.189550
  17 H :    0.167808
  18 H :    0.162455
  19 H :    0.161884

  Mayer bond orders larger than 0.100000
B(  0-C ,  1-C ) :   0.8881 B(  0-C ,  8-H ) :   0.9687 B(  0-C ,  9-H ) :   0.9812
B(  0-C , 10-H ) :   0.9821 B(  1-C ,  2-C ) :   0.9116 B(  1-C , 11-H ) :   0.9582
B(  1-C , 12-H ) :   0.9585 B(  2-C ,  3-C ) :   0.9617 B(  2-C , 13-H ) :   0.9771
B(  2-C , 14-H ) :   0.9689 B(  3-C ,  4-O ) :   1.7750 B(  3-C ,  5-O ) :   1.0544
B(  5-O ,  6-C ) :   0.7997 B(  6-C ,  7-C ) :   0.9315 B(  6-C , 15-H ) :   0.9530
B(  6-C , 16-H ) :   0.9640 B(  7-C , 17-H ) :   0.9603 B(  7-C , 18-H ) :   0.9692
B(  7-C , 19-H ) :   0.9697

Dispersion correction           -0.005032271
FINAL SINGLE POINT ENERGY      -386.240918311674

DIPOLE MOMENT
-------------

Method             : SCF
Type of density    : Electron Density
Multiplicity       :   1
Irrep              :   0
Energy             :  -386.2475409030858486 Eh
Relativity type    :
Basis              : AO
                                X                 Y                 Z
Electronic contribution:      3.474546381       4.890828438      -1.850989869
Nuclear contribution   :     -3.390908764      -5.928385455       1.288630050
                        -----------------------------------------
Total Dipole Moment    :      0.083637618      -1.037557017      -0.562359819
                        -----------------------------------------
Magnitude (a.u.)       :      1.183118076
Magnitude (Debye)      :      3.007247159

Rotational constants in cm-1:             0.130905             0.033403             0.030756
Rotational constants in MHz :          3924.447764          1001.394939           922.055498

                             ****ORCA TERMINATED NORMALLY****
TOTAL RUN TIME: 0 days 0 hours 0 minutes 37 seconds 562 msec
