                         Program Version 6.0.0  -   RELEASE  -
|  1> ! r2scan-3c def2/J RI DEFGRID2 scfconv6 printgap
|  2> %output
|  3>     printlevel normal
|  4> end
|  5> * xyz 0 1
|  6> C -4.4946210176 -1.217840348 -0.2522811661
|  7> C -3.6818601714 -2.3426534358 -0.2253252268
|  8> C -2.3097951259 -2.2030302148 -0.1286261979
|  9> C -1.7255992903 -0.9401014657 -0.0564079634
| 10> C -2.5466728357 0.1931146272 -0.0832489521
| 11> C -3.9285871608 0.0410614357 -0.1818160724
| 12> C -1.9706375113 1.5419367213 -0.0089946031
| 13> O -2.6797332039 2.5458491856 -0.0390801215
| 14> C -0.5046466158 1.6333237107 0.1051616599
| 15> C 0.0416074318 2.9023412245 0.1882753909
| 16> C 1.4194856079 3.0724213871 0.3039549406
| 17> C 2.2473125042 1.9827758071 0.333764843
| 18> C 1.7337481777 0.6656386752 0.2451450303
| 19> C 0.3208901104 0.4844865897 0.1304048799
| 20> C -0.2569816257 -0.8382819488 0.0442910924
| 21> O 0.4202394326 -1.882719421 0.0511691937
| 22> N 2.5567271077 -0.3876956364 0.2645934195
| 23> C 3.994109267 -0.346182193 0.3910117593
| 24> C 4.5721081579 -1.7542896948 0.2300791855
| 25> O 4.5420777615 -2.2125237167 -1.1023367113
| 26> H -5.5653008155 -1.3237108357 -0.3281470744
| 27> H -4.118703978 -3.3274080772 -0.280064064
| 28> H -1.6609606397 -3.0660722538 -0.1067300314
| 29> H -4.5365233226 0.9335091657 -0.2008889598
| 30> H -0.6263835919 3.7495345708 0.163816085
| 31> H 1.8303425992 4.0673258541 0.3726096104
| 32> H 3.3108352609 2.1208369924 0.4302657234
| 33> H 2.0993095653 -1.2978123187 0.256069348
| 34> H 4.2825160228 0.0445674212 1.373160501
| 35> H 4.4214805746 0.2949046031 -0.3868794896
| 36> H 4.0395424298 -2.4514141777 0.8898911354
| 37> H 5.6275852212 -1.7457686711 0.5081370985
| 38> H 3.6240995883 -2.2732838124 -1.4002636395
| 39> *
| 40>
| 41>                          ****END OF INPUT****

CARTESIAN COORDINATES (ANGSTROEM)
---------------------------------
  C     -4.494621   -1.217840   -0.252281
  C     -3.681860   -2.342653   -0.225325
  C     -2.309795   -2.203030   -0.128626
  C     -1.725599   -0.940101   -0.056408
  C     -2.546673    0.193115   -0.083249
  C     -3.928587    0.041061   -0.181816
  C     -1.970638    1.541937   -0.008995
  O     -2.679733    2.545849   -0.039080
  C     -0.504647    1.633324    0.105162
  C      0.041607    2.902341    0.188275
  C      1.419486    3.072421    0.303955
  C      2.247313    1.982776    0.333765
  C      1.733748    0.665639    0.245145
  C      0.320890    0.484487    0.130405
  C     -0.256982   -0.838282    0.044291
  O      0.420239   -1.882719    0.051169
  N      2.556727   -0.387696    0.264593
  C      3.994109   -0.346182    0.391012
  C      4.572108   -1.754290    0.230079
  O      4.542078   -2.212524   -1.102337
  H     -5.565301   -1.323711   -0.328147
  H     -4.118704   -3.327408   -0.280064
  H     -1.660961   -3.066072   -0.106730
  H     -4.536523    0.933509   -0.200889
  H     -0.626384    3.749535    0.163816
  H      1.830343    4.067326    0.372610
  H      3.310835    2.120837    0.430266
  H      2.099310   -1.297812    0.256069
  H      4.282516    0.044567    1.373161
  H      4.421481    0.294905   -0.386879
  H      4.039542   -2.451414    0.889891
  H      5.627585   -1.745769    0.508137
  H      3.624100   -2.273284   -1.400264

 Total Charge           Charge          ....    0
 Multiplicity           Mult            ....    1
 Number of Electrons    NEL             ....  140
 Basis Dimension        Dim             ....  465

ORBITAL ENERGIES
----------------

  NO   OCC          E(Eh)            E(eV)
   0   2.0000     -18.961886      -515.9791
   1   2.0000     -18.946139      -515.5507
   2   2.0000     -18.939960      -515.3825
   3   2.0000     -14.193238      -386.2176
   4   2.0000     -10.127964      -275.5959
   5   2.0000     -10.124134      -275.4917
   6   2.0000     -10.105886      -274.9951
   7   2.0000     -10.096926      -274.7513
   8   2.0000     -10.084277      -274.4071
   9   2.0000     -10.061753      -273.7942
  10   2.0000     -10.061404      -273.7847
  11   2.0000     -10.060001      -273.7465
  12   2.0000     -10.059363      -273.7292
  13   2.0000     -10.058010      -273.6924
  14   2.0000     -10.056062      -273.6394
  15   2.0000     -10.055094      -273.6130
  16   2.0000     -10.053382      -273.5664
  17   2.0000     -10.052448      -273.5410
  18   2.0000     -10.052054      -273.5303
  19   2.0000     -10.043580      -273.2997
  20   2.0000      -1.010214       -27.4893
  21   2.0000      -1.004187       -27.3253
  22   2.0000      -1.001005       -27.2387
  23   2.0000      -0.932565       -25.3764
  24   2.0000      -0.853199       -23.2167
  25   2.0000      -0.836663       -22.7668
  26   2.0000      -0.777069       -21.1451
  27   2.0000      -0.752679       -20.4814
  28   2.0000      -0.739522       -20.1234
  29   2.0000      -0.734675       -19.9915
  30   2.0000      -0.701689       -19.0939
  31   2.0000      -0.654040       -17.7973
  32   2.0000      -0.635788       -17.3007
  33   2.0000      -0.620919       -16.8961
  34   2.0000      -0.603403       -16.4194
  35   2.0000      -0.575538       -15.6612
  36   2.0000      -0.556581       -15.1454
  37   2.0000      -0.524235       -14.2652
  38   2.0000      -0.521812       -14.1992
  39   2.0000      -0.501155       -13.6371
  40   2.0000      -0.479386       -13.0448
  41   2.0000      -0.470630       -12.8065
  42   2.0000      -0.463339       -12.6081
  43   2.0000      -0.450213       -12.2509
  44   2.0000      -0.447176       -12.1683
  45   2.0000      -0.438113       -11.9217
  46   2.0000      -0.430919       -11.7259
  47   2.0000      -0.418202       -11.3798
  48   2.0000      -0.409703       -11.1486
  49   2.0000      -0.406490       -11.0612
  50   2.0000      -0.402473       -10.9518
  51   2.0000      -0.395297       -10.7566
  52   2.0000      -0.389893       -10.6095
  53   2.0000      -0.381779       -10.3887
  54   2.0000      -0.375241       -10.2108
  55   2.0000      -0.364680        -9.9234
  56   2.0000      -0.356868        -9.7109
  57   2.0000      -0.348739        -9.4897
  58   2.0000      -0.337869        -9.1939
  59   2.0000      -0.334057        -9.0902
  60   2.0000      -0.325510        -8.8576
  61   2.0000      -0.314020        -8.5449
  62   2.0000      -0.296094        -8.0571
  63   2.0000      -0.263805        -7.1785
  64   2.0000      -0.254629        -6.9288
  65   2.0000      -0.254204        -6.9173
  66   2.0000      -0.252554        -6.8723
  67   2.0000      -0.237481        -6.4622
  68   2.0000      -0.224851        -6.1185
  69   2.0000      -0.201501        -5.4831
  70   0.0000      -0.132248        -3.5987
  71   0.0000      -0.081552        -2.2191
  72   0.0000      -0.052446        -1.4271
  73   0.0000      -0.030938        -0.8419
  74   0.0000       0.021095         0.5740

MULLIKEN ATOMIC CHARGES
-----------------------
   0 C :   -0.130415
   1 C :   -0.126237
   2 C :   -0.226254
   3 C :    0.189854
   4 C :    0.138754
   5 C :   -0.213618
   6 C :    0.033903
   7 O :   -0.352721
   8 C :    0.192335
   9 C :   -0.248011
  10 C :   -0.134862
  11 C :   -0.270136
  12 C :    0.268186
  13 C :   -0.137459
  14 C :    0.015291
  15 O :   -0.447690
  16 N :   -0.065440
  17 C :   -0.211605
  18 C :   -0.220992
  19 O :   -0.411410
  20 H :    0.149364
  21 H :    0.149085
  22 H :    0.181706
  23 H :    0.182156
  24 H :    0.185027
  25 H :    0.147909
  26 H :    0.143514
  27 H :    0.314161
  28 H :    0.150380
  29 H :    0.155921
  30 H :    0.143118
  31 H :    0.146419
  32 H :    0.309768
Sum of atomic charges:    0.0000000

LOEWDIN ATOMIC CHARGES
----------------------
   0 C :   -0.142237
   1 C :   -0.139496
   2 C :   -0.101809
   3 C :   -0.026337
   4 C :   -0.035332
   5 C :   -0.096203
   6 C :    0.270041
   7 O :   -0.477819
   8 C :   -0.023400
   9 C :   -0.122414
  10 C :   -0.124569
  11 C :   -0.136198
  12 C :    0.202193
  13 C :   -0.034534
  14 C :    0.270372
  15 O :   -0.543223
  16 N :   -0.692370
  17 C :   -0.028077
  18 C :    0.032551
  19 O :   -0.598245
  20 H :    0.170935
  21 H :    0.170814
  22 H :    0.192697
  23 H :    0.192099
  24 H :    0.193876
  25 H :    0.172476
  26 H :    0.177242
  27 H :    0.295482
  28 H :    0.178030
  29 H :    0.185476
  30 H :    0.164908
  31 H :    0.183140
  32 H :    0.269929

  Mayer bond orders larger than 0.100000
B(  0-C ,  1-C ) :   1.3222 B(  0-C ,  5-C ) :   1.3555 B(  0-C , 20-H ) :   0.9559
B(  1-C ,  2-C ) :   1.3502 B(  1-C , 21-H ) :   0.9556 B(  2-C ,  3-C ) :   1.3526
B(  2-C , 15-O ) :   0.1027 B(  2-C , 22-H ) :   0.9606 B(  3-C ,  4-C ) :   1.5205
B(  3-C , 14-C ) :   0.9266 B(  3-C , 15-O ) :  -0.2044 B(  4-C ,  5-C ) :   1.3512
B(  4-C ,  6-C ) :   0.8553 B(  4-C ,  7-O ) :  -0.2232 B(  5-C ,  7-O ) :   0.1079
B(  5-C , 23-H ) :   0.9632 B(  6-C ,  7-O ) :   2.1016 B(  6-C ,  8-C ) :   0.8629
B(  7-O ,  8-C ) :  -0.2174 B(  7-O ,  9-C ) :   0.1228 B(  8-C ,  9-C ) :   1.3988
B(  8-C , 13-C ) :   1.2738 B(  9-C , 10-C ) :   1.2441 B(  9-C , 24-H ) :   0.9662
B( 10-C , 11-C ) :   1.3711 B( 10-C , 25-H ) :   0.9663 B( 11-C , 12-C ) :   1.1288
B( 11-C , 26-H ) :   0.9534 B( 12-C , 13-C ) :   1.2731 B( 12-C , 14-C ) :  -0.1119
B( 12-C , 16-N ) :   1.3154 B( 13-C , 14-C ) :   0.9335 B( 13-C , 15-O ) :  -0.1311
B( 14-C , 15-O ) :   1.8826 B( 16-N , 17-C ) :   0.8613 B( 16-N , 27-H ) :   0.8218
B( 17-C , 18-C ) :   0.9331 B( 17-C , 28-H ) :   0.9332 B( 17-C , 29-H ) :   0.9367
B( 18-C , 19-O ) :   0.9811 B( 18-C , 30-H ) :   0.9856 B( 18-C , 31-H ) :   0.9717
B( 19-O , 32-H ) :   0.8825

Dispersion correction           -0.015580973
FINAL SINGLE POINT ENERGY      -897.786359710702

DIPOLE MOMENT
-------------

Method             : SCF
Type of density    : Electron Density
Multiplicity       :   1
Irrep              :   0
Energy             :  -897.7870659169927876 Eh
Relativity type    :
Basis              : AO
                                X                 Y                 Z
Electronic contribution:    -11.482717870       3.772517373      -0.778055453
Nuclear contribution   :     11.988743500      -4.035561442       1.196466960
                        -----------------------------------------
Total Dipole Moment    :      0.506025630      -0.263044068       0.418411507
                        -----------------------------------------
Magnitude (a.u.)       :      0.707334651
Magnitude (Debye)      :      1.797901802

Rotational constants in cm-1:             0.019266             0.007852             0.005679
Rotational constants in MHz :           577.567280           235.393782           170.264075

                             ****ORCA TERMINATED NORMALLY****
TOTAL RUN TIME: 0 days 0 hours 2 minutes 6 seconds 938 msec
