                         Program Version 6.0.0  -   RELEASE  -
|  1> ! r2scan-3c def2/J RI DEFGRID2 scfconv6 printgap
|  2> %output
|  3>     printlevel normal
|  4> end
|  5> %cpcm
|  6>     smd true
|  7>     smdsolvent "water"
|  8> end
|  9> * xyz 0 1
| 10> C -4.4946210176 -1.217840348 -0.2522811661
| 11> C -3.6818601714 -2.3426534358 -0.2253252268
| 12> C -2.3097951259 -2.2030302148 -0.1286261979
| 13> C -1.7255992903 -0.9401014657 -0.0564079634
| 14> C -2.5466728357 0.1931146272 -0.0832489521
| 15> C -3.9285871608 0.0410614357 -0.1818160724
| 16> C -1.9706375113 1.5419367213 -0.0089946031
| 17> O -2.6797332039 2.5458491856 -0.0390801215
| 18> C -0.5046466158 1.6333237107 0.1051616599
| 19> C 0.0416074318 2.9023412245 0.1882753909
| 20> C 1.4194856079 3.0724213871 0.3039549406
| 21> C 2.2473125042 1.9827758071 0.333764843
| 22> C 1.7337481777 0.6656386752 0.2451450303
| 23> C 0.3208901104 0.4844865897 0.1304048799
| 24> C -0.2569816257 -0.8382819488 0.0442910924
| 25> O 0.4202394326 -1.882719421 0.0511691937
| 26> N 2.5567271077 -0.3876956364 0.2645934195
| 27> C 3.994109267 -0.346182193 0.3910117593
| 28> C 4.5721081579 -1.7542896948 0.2300791855
| 29> O 4.5420777615 -2.2125237167 -1.1023367113
| 30> H -5.5653008155 -1.3237108357 -0.3281470744
| 31> H -4.118703978 -3.3274080772 -0.280064064
| 32> H -1.6609606397 -3.0660722538 -0.1067300314
| 33> H -4.5365233226 0.9335091657 -0.2008889598
| 34> H -0.6263835919 3.7495345708 0.163816085
| 35> H 1.8303425992 4.0673258541 0.3726096104
| 36> H 3.3108352609 2.1208369924 0.4302657234
| 37> H 2.0993095653 -1.2978123187 0.256069348
| 38> H 4.2825160228 0.0445674212 1.373160501
| 39> H 4.4214805746 0.2949046031 -0.3868794896
| 40> H 4.0395424298 -2.4514141777 0.8898911354
| 41> H 5.6275852212 -1.7457686711 0.5081370985
| 42> H 3.6240995883 -2.2732838124 -1.4002636395
| 43> *
| 44>
| 45>                          ****END OF INPUT****

CARTESIAN COORDINATES (ANGSTROEM)
---------------------------------
  C     -4.494621   -1.217840   -0.252281
  C     -3.681860   -2.342653   -0.225325
  C     -2.309795   -2.203030   -0.128626
  C     -1.725599   -0.940101   -0.056408
  C     -2.546673    0.193115   -0.083249
  C     -3.928587    0.041061   -0.181816
  C     -1.970638    1.541937   -0.008995
  O     -2.679733    2.545849   -0.039080
  C     -0.504647    1.633324    0.105162
  C      0.041607    2.902341    0.188275
  C      1.419486    3.072421    0.303955
  C      2.247313    1.982776    0.333765
  C      1.733748    0.665639    0.245145
  C      0.320890    0.484487    0.130405
  C     -0.256982   -0.838282    0.044291
  O      0.420239   -1.882719    0.051169
  N      2.556727   -0.387696    0.264593
  C      3.994109   -0.346182    0.391012
  C      4.572108   -1.754290    0.230079
  O      4.542078   -2.212524   -1.102337
  H     -5.565301   -1.323711   -0.328147
  H     -4.118704   -3.327408   -0.280064
  H     -1.660961   -3.066072   -0.106730
  H     -4.536523    0.933509   -0.200889
  H     -0.626384    3.749535    0.163816
  H      1.830343    4.067326    0.372610
  H      3.310835    2.120837    0.430266
  H      2.099310   -1.297812    0.256069
  H      4.282516    0.044567    1.373161
  H      4.421481    0.294905   -0.386879
  H      4.039542   -2.451414    0.889891
  H      5.627585   -1.745769    0.508137
  H      3.624100   -2.273284   -1.400264

 Total Charge           Charge          ....    0
 Multiplicity           Mult            ....    1
 Number of Electrons    NEL             ....  140
 Basis Dimension        Dim             ....  465

ORBITAL ENERGIES
----------------

  NO   OCC          E(Eh)            E(eV)
   0   2.0000     -18.956038      -515.8200
   1   2.0000     -18.949397      -515.6393
   2   2.0000     -18.947052      -515.5755
   3   2.0000     -14.185588      -386.0095
   4   2.0000     -10.132162      -275.7101
   5   2.0000     -10.127934      -275.5951
   6   2.0000     -10.100326      -274.8438
   7   2.0000     -10.079189      -274.2687
   8   2.0000     -10.065013      -273.8829
   9   2.0000     -10.060456      -273.7589
  10   2.0000     -10.060389      -273.7571
  11   2.0000     -10.058618      -273.7089
  12   2.0000     -10.056721      -273.6573
  13   2.0000     -10.050633      -273.4916
  14   2.0000     -10.050096      -273.4770
  15   2.0000     -10.049859      -273.4706
  16   2.0000     -10.048446      -273.4321
  17   2.0000     -10.048312      -273.4285
  18   2.0000     -10.046134      -273.3692
  19   2.0000     -10.042428      -273.2684
  20   2.0000      -1.016338       -27.6560
  21   2.0000      -1.011724       -27.5304
  22   2.0000      -0.993961       -27.0470
  23   2.0000      -0.923863       -25.1396
  24   2.0000      -0.851467       -23.1696
  25   2.0000      -0.832973       -22.6663
  26   2.0000      -0.773385       -21.0449
  27   2.0000      -0.743588       -20.2341
  28   2.0000      -0.737258       -20.0618
  29   2.0000      -0.730542       -19.8791
  30   2.0000      -0.692598       -18.8465
  31   2.0000      -0.651931       -17.7399
  32   2.0000      -0.628769       -17.1097
  33   2.0000      -0.614023       -16.7084
  34   2.0000      -0.595329       -16.1997
  35   2.0000      -0.568755       -15.4766
  36   2.0000      -0.553121       -15.0512
  37   2.0000      -0.520235       -14.1563
  38   2.0000      -0.515001       -14.0139
  39   2.0000      -0.494227       -13.4486
  40   2.0000      -0.468780       -12.7561
  41   2.0000      -0.463563       -12.6142
  42   2.0000      -0.460454       -12.5296
  43   2.0000      -0.444033       -12.0828
  44   2.0000      -0.437923       -11.9165
  45   2.0000      -0.430402       -11.7118
  46   2.0000      -0.425881       -11.5888
  47   2.0000      -0.418496       -11.3879
  48   2.0000      -0.413754       -11.2588
  49   2.0000      -0.406527       -11.0621
  50   2.0000      -0.399575       -10.8730
  51   2.0000      -0.391368       -10.6497
  52   2.0000      -0.386033       -10.5045
  53   2.0000      -0.378803       -10.3078
  54   2.0000      -0.370589       -10.0843
  55   2.0000      -0.358173        -9.7464
  56   2.0000      -0.348039        -9.4706
  57   2.0000      -0.343957        -9.3595
  58   2.0000      -0.337089        -9.1727
  59   2.0000      -0.329408        -8.9637
  60   2.0000      -0.322565        -8.7774
  61   2.0000      -0.306865        -8.3502
  62   2.0000      -0.290290        -7.8992
  63   2.0000      -0.264995        -7.2109
  64   2.0000      -0.252194        -6.8626
  65   2.0000      -0.251221        -6.8361
  66   2.0000      -0.250421        -6.8143
  67   2.0000      -0.243700        -6.6314
  68   2.0000      -0.231365        -6.2958
  69   2.0000      -0.196526        -5.3478
  70   0.0000      -0.134252        -3.6532
  71   0.0000      -0.080440        -2.1889
  72   0.0000      -0.049004        -1.3335
  73   0.0000      -0.027957        -0.7607
  74   0.0000       0.024241         0.6596

MULLIKEN ATOMIC CHARGES
-----------------------
   0 C :   -0.169331
   1 C :   -0.158297
   2 C :   -0.240463
   3 C :    0.199568
   4 C :    0.138885
   5 C :   -0.226856
   6 C :    0.076623
   7 O :   -0.440039
   8 C :    0.184935
   9 C :   -0.256332
  10 C :   -0.185735
  11 C :   -0.266555
  12 C :    0.267174
  13 C :   -0.140458
  14 C :    0.035685
  15 O :   -0.508595
  16 N :   -0.082606
  17 C :   -0.237345
  18 C :   -0.212545
  19 O :   -0.491932
  20 H :    0.185367
  21 H :    0.185585
  22 H :    0.197321
  23 H :    0.196054
  24 H :    0.196986
  25 H :    0.184104
  26 H :    0.182974
  27 H :    0.355420
  28 H :    0.177621
  29 H :    0.177360
  30 H :    0.156478
  31 H :    0.165506
  32 H :    0.353447
Sum of atomic charges:    0.0000000

LOEWDIN ATOMIC CHARGES
----------------------
   0 C :   -0.138851
   1 C :   -0.131896
   2 C :   -0.108098
   3 C :   -0.027637
   4 C :   -0.042066
   5 C :   -0.101601
   6 C :    0.277091
   7 O :   -0.547845
   8 C :   -0.031842
   9 C :   -0.126826
  10 C :   -0.123278
  11 C :   -0.120002
  12 C :    0.201359
  13 C :   -0.038892
  14 C :    0.270829
  15 O :   -0.582599
  16 N :   -0.673831
  17 C :   -0.019994
  18 C :    0.033703
  19 O :   -0.635900
  20 H :    0.184339
  21 H :    0.184559
  22 H :    0.196689
  23 H :    0.195117
  24 H :    0.195731
  25 H :    0.186226
  26 H :    0.193204
  27 H :    0.299935
  28 H :    0.191835
  29 H :    0.193012
  30 H :    0.173337
  31 H :    0.189680
  32 H :    0.284511

  Mayer bond orders larger than 0.100000
B(  0-C ,  1-C ) :   1.3100 B(  0-C ,  5-C ) :   1.3528 B(  0-C , 20-H ) :   0.9604
B(  1-C ,  2-C ) :   1.3397 B(  1-C , 21-H ) :   0.9602 B(  2-C ,  3-C ) :   1.2985
B(  2-C , 15-O ) :   0.1005 B(  2-C , 22-H ) :   0.9724 B(  3-C ,  4-C ) :   1.5104
B(  3-C , 14-C ) :   0.9212 B(  3-C , 15-O ) :  -0.2036 B(  4-C ,  5-C ) :   1.2887
B(  4-C ,  6-C ) :   0.8651 B(  4-C ,  7-O ) :  -0.2235 B(  5-C ,  7-O ) :   0.1040
B(  5-C , 23-H ) :   0.9735 B(  6-C ,  7-O ) :   2.0631 B(  6-C ,  8-C ) :   0.8735
B(  7-O ,  8-C ) :  -0.2174 B(  7-O ,  9-C ) :   0.1214 B(  8-C ,  9-C ) :   1.3291
B(  8-C , 13-C ) :   1.2613 B(  9-C , 10-C ) :   1.2279 B(  9-C , 24-H ) :   0.9808
B( 10-C , 11-C ) :   1.3688 B( 10-C , 25-H ) :   0.9762 B( 11-C , 12-C ) :   1.1030
B( 11-C , 26-H ) :   0.9617 B( 12-C , 13-C ) :   1.2378 B( 12-C , 14-C ) :  -0.1047
B( 12-C , 16-N ) :   1.3300 B( 13-C , 14-C ) :   0.9524 B( 13-C , 15-O ) :  -0.1335
B( 14-C , 15-O ) :   1.8593 B( 16-N , 17-C ) :   0.8544 B( 16-N , 27-H ) :   0.8138
B( 17-C , 18-C ) :   0.9377 B( 17-C , 28-H ) :   0.9250 B( 17-C , 29-H ) :   0.9386
B( 18-C , 19-O ) :   0.9621 B( 18-C , 30-H ) :   0.9739 B( 18-C , 31-H ) :   0.9666
B( 19-O , 32-H ) :   0.8610

Dispersion correction           -0.015580973
FINAL SINGLE POINT ENERGY      -897.806415640870

DIPOLE MOMENT
-------------

Method             : SCF
Type of density    : Electron Density
Multiplicity       :   1
Irrep              :   0
Energy             :  -897.8071218471601469 Eh
Relativity type    :
Basis              : AO
                                X                 Y                 Z
Electronic contribution:    -10.980902457       3.644009542      -0.564326764
Nuclear contribution   :     11.988743500      -4.035561442       1.196466960
                        -----------------------------------------
Total Dipole Moment    :      1.007841043      -0.391551899       0.632140196
                        -----------------------------------------
Magnitude (a.u.)       :      1.252460652
Magnitude (Debye)      :      3.183501981

Rotational constants in cm-1:             0.019266             0.007852             0.005679
Rotational constants in MHz :           577.567280           235.393782           170.264075

                             ****ORCA TERMINATED NORMALLY****
TOTAL RUN TIME: 0 days 0 hours 2 minutes 38 seconds 555 msec
