                         Program Version 6.0.0  -   RELEASE  -
|  1> ! pbe def2-sv(p) def2/J RI DEFGRID1 loosescf d4 GCP(DFT/SV(P)) printgap
|  2> %output
|  3>     printlevel normal
|  4> end
|  5> * xyz 0 1
|  6> C 1.7025711583 -1.2251443053 -0.752426394
|  7> C 1.5361453639 -0.0171898186 0.1539308708
|  8> C 1.7248406269 1.2981909963 -0.582877439
|  9> S -0.0055059141 -0.0712522431 1.1734735396
| 10> C -1.5375928673 -0.0013513552 0.1407284686
| 11> C -1.6974224608 1.3084156196 -0.6123982839
| 12> C -1.7172779254 -1.2168694514 -0.7531542399
| 13> H 1.0784184863 -1.1392362303 -1.6376789382
| 14> H 2.7401215969 -1.2929891603 -1.0737009829
| 15> H 1.4425649314 -2.1389655724 -0.224054512
| 16> H 2.2686977533 -0.0780786661 0.9663146799
| 17> H 2.7640429824 1.3906458239 -0.8924697116
| 18> H 1.4792612539 2.1373484889 0.0631815071
| 19> H 1.1010244295 1.3424702095 -1.4713850617
| 20> H -2.2778003906 -0.0405672096 0.9474968294
| 21> H -1.4482424123 2.1510189611 0.0277761391
| 22> H -1.0614237539 1.3337366583 -1.4929470277
| 23> H -2.7309875754 1.4123499668 -0.9367713409
| 24> H -1.4765300588 -2.1285994128 -0.2121574671
| 25> H -1.0849227089 -1.1519114812 -1.6342856736
| 26> H -2.7533187344 -1.2712573794 -1.0816939765
| 27> *
| 28>
| 29>                          ****END OF INPUT****

CARTESIAN COORDINATES (ANGSTROEM)
---------------------------------
  C      1.702571   -1.225144   -0.752426
  C      1.536145   -0.017190    0.153931
  C      1.724841    1.298191   -0.582877
  S     -0.005506   -0.071252    1.173474
  C     -1.537593   -0.001351    0.140728
  C     -1.697422    1.308416   -0.612398
  C     -1.717278   -1.216869   -0.753154
  H      1.078418   -1.139236   -1.637679
  H      2.740122   -1.292989   -1.073701
  H      1.442565   -2.138966   -0.224055
  H      2.268698   -0.078079    0.966315
  H      2.764043    1.390646   -0.892470
  H      1.479261    2.137348    0.063182
  H      1.101024    1.342470   -1.471385
  H     -2.277800   -0.040567    0.947497
  H     -1.448242    2.151019    0.027776
  H     -1.061424    1.333737   -1.492947
  H     -2.730988    1.412350   -0.936771
  H     -1.476530   -2.128599   -0.212157
  H     -1.084923   -1.151911   -1.634286
  H     -2.753319   -1.271257   -1.081694

 Total Charge           Charge          ....    0
 Multiplicity           Mult            ....    1
 Number of Electrons    NEL             ....   66
 Basis Dimension        Dim             ....  130

ORBITAL ENERGIES
----------------

  NO   OCC          E(Eh)            E(eV)
   0   2.0000     -88.000161     -2394.6061
   1   2.0000      -9.922111      -269.9944
   2   2.0000      -9.921979      -269.9908
   3   2.0000      -9.878032      -268.7949
   4   2.0000      -9.877988      -268.7937
   5   2.0000      -9.877864      -268.7904
   6   2.0000      -9.877843      -268.7898
   7   2.0000      -7.644078      -208.0060
   8   2.0000      -5.673030      -154.3710
   9   2.0000      -5.668543      -154.2489
  10   2.0000      -5.660316      -154.0250
  11   2.0000      -0.745326       -20.2813
  12   2.0000      -0.712754       -19.3950
  13   2.0000      -0.621354       -16.9079
  14   2.0000      -0.617445       -16.8015
  15   2.0000      -0.612788       -16.6748
  16   2.0000      -0.530878       -14.4459
  17   2.0000      -0.485283       -13.2052
  18   2.0000      -0.419468       -11.4143
  19   2.0000      -0.402309       -10.9474
  20   2.0000      -0.396643       -10.7932
  21   2.0000      -0.377557       -10.2738
  22   2.0000      -0.373238       -10.1563
  23   2.0000      -0.362288        -9.8584
  24   2.0000      -0.357357        -9.7242
  25   2.0000      -0.332762        -9.0549
  26   2.0000      -0.320878        -8.7315
  27   2.0000      -0.316497        -8.6123
  28   2.0000      -0.309544        -8.4231
  29   2.0000      -0.302226        -8.2240
  30   2.0000      -0.269797        -7.3415
  31   2.0000      -0.241896        -6.5823
  32   2.0000      -0.174220        -4.7408
  33   0.0000       0.015544         0.4230
  34   0.0000       0.040347         1.0979
  35   0.0000       0.046309         1.2601
  36   0.0000       0.055744         1.5169
  37   0.0000       0.059519         1.6196

MULLIKEN ATOMIC CHARGES
-----------------------
   0 C :   -0.215054
   1 C :   -0.294363
   2 C :   -0.214100
   3 S :   -0.064751
   4 C :   -0.294195
   5 C :   -0.214540
   6 C :   -0.214689
   7 H :    0.107650
   8 H :    0.099643
   9 H :    0.110654
  10 H :    0.121101
  11 H :    0.099381
  12 H :    0.110311
  13 H :    0.107209
  14 H :    0.121038
  15 H :    0.110428
  16 H :    0.107583
  17 H :    0.099467
  18 H :    0.110486
  19 H :    0.107210
  20 H :    0.099531
Sum of atomic charges:    0.0000000

LOEWDIN ATOMIC CHARGES
----------------------
   0 C :   -0.345988
   1 C :   -0.249775
   2 C :   -0.346040
   3 S :    0.192399
   4 C :   -0.249763
   5 C :   -0.345928
   6 C :   -0.346149
   7 H :    0.116753
   8 H :    0.120723
   9 H :    0.121775
  10 H :    0.127352
  11 H :    0.120586
  12 H :    0.121654
  13 H :    0.116781
  14 H :    0.127319
  15 H :    0.121725
  16 H :    0.116778
  17 H :    0.120645
  18 H :    0.121716
  19 H :    0.116799
  20 H :    0.120636

  Mayer bond orders larger than 0.100000
B(  0-C ,  1-C ) :   1.0873 B(  0-C ,  7-H ) :   0.9415 B(  0-C ,  8-H ) :   0.9372
B(  0-C ,  9-H ) :   0.9447 B(  1-C ,  2-C ) :   1.0874 B(  1-C ,  3-S ) :   1.0353
B(  1-C , 10-H ) :   0.9008 B(  2-C , 11-H ) :   0.9371 B(  2-C , 12-H ) :   0.9448
B(  2-C , 13-H ) :   0.9416 B(  3-S ,  4-C ) :   1.0352 B(  4-C ,  5-C ) :   1.0879
B(  4-C ,  6-C ) :   1.0870 B(  4-C , 14-H ) :   0.9008 B(  5-C , 15-H ) :   0.9448
B(  5-C , 16-H ) :   0.9414 B(  5-C , 17-H ) :   0.9371 B(  6-C , 18-H ) :   0.9447
B(  6-C , 19-H ) :   0.9417 B(  6-C , 20-H ) :   0.9371

Dispersion correction           -0.019613977
FINAL SINGLE POINT ENERGY      -634.341683520911

DIPOLE MOMENT
-------------

Method             : SCF
Type of density    : Electron Density
Multiplicity       :   1
Irrep              :   0
Energy             :  -634.4080150910946259 Eh
Relativity type    :
Basis              : AO
                                X                 Y                 Z
Electronic contribution:     -0.035655457      -0.460678940       7.568307342
Nuclear contribution   :      0.038535795       0.495504826      -8.151329966
                        -----------------------------------------
Total Dipole Moment    :      0.002880338       0.034825886      -0.583022624
                        -----------------------------------------
Magnitude (a.u.)       :      0.584068933
Magnitude (Debye)      :      1.484585247

Rotational constants in cm-1:             0.088059             0.050463             0.046778
Rotational constants in MHz :          2639.946784          1512.833788          1402.374796

                             ****ORCA TERMINATED NORMALLY****
TOTAL RUN TIME: 0 days 0 hours 0 minutes 9 seconds 872 msec
