                         Program Version 6.0.0  -   RELEASE  -
|  1> ! r2scan-3c def2/J RI DEFGRID2 scfconv6 printgap
|  2> %output
|  3>     printlevel normal
|  4> end
|  5> * xyz 0 1
|  6> C -2.3913580306 -1.1840538398 -0.5970456272
|  7> C -2.0235950771 -0.5519937281 0.7399656973
|  8> C -1.4282034692 0.8489192091 0.5591454894
|  9> C -0.1179122956 0.8064045618 -0.1843571886
| 10> O 0.1164596577 1.4108909031 -1.2122048808
| 11> O 0.7722291892 0.031824935 0.4173562058
| 12> C 2.0683431241 -0.0974025143 -0.1886251877
| 13> C 2.8306113749 -1.18198393 0.5477107124
| 14> H -3.1314175566 -0.5784850785 -1.1150200664
| 15> H -1.5149713104 -1.2650842807 -1.2376460324
| 16> H -2.8018542286 -2.1789882645 -0.4472607556
| 17> H -1.2989538636 -1.179746489 1.2596877664
| 18> H -2.9159306335 -0.4717147526 1.3615483779
| 19> H -1.236630197 1.2908688587 1.5380130994
| 20> H -2.1103790765 1.4908613669 0.0016305027
| 21> H 1.9348781083 -0.3381211569 -1.2486546274
| 22> H 2.5761947888 0.8704430156 -0.1217631796
| 23> H 3.8228717978 -1.2771425629 0.1193818509
| 24> H 2.9161398086 -0.9253172982 1.5993490898
| 25> H 2.3100745904 -2.130998968 0.4595308904
| 26> *
| 27>
| 28>                          ****END OF INPUT****

CARTESIAN COORDINATES (ANGSTROEM)
---------------------------------
  C     -2.391358   -1.184054   -0.597046
  C     -2.023595   -0.551994    0.739966
  C     -1.428203    0.848919    0.559145
  C     -0.117912    0.806405   -0.184357
  O      0.116460    1.410891   -1.212205
  O      0.772229    0.031825    0.417356
  C      2.068343   -0.097403   -0.188625
  C      2.830611   -1.181984    0.547711
  H     -3.131418   -0.578485   -1.115020
  H     -1.514971   -1.265084   -1.237646
  H     -2.801854   -2.178988   -0.447261
  H     -1.298954   -1.179746    1.259688
  H     -2.915931   -0.471715    1.361548
  H     -1.236630    1.290869    1.538013
  H     -2.110379    1.490861    0.001631
  H      1.934878   -0.338121   -1.248655
  H      2.576195    0.870443   -0.121763
  H      3.822872   -1.277143    0.119382
  H      2.916140   -0.925317    1.599349
  H      2.310075   -2.130999    0.459531

 Total Charge           Charge          ....    0
 Multiplicity           Mult            ....    1
 Number of Electrons    NEL             ....   64
 Basis Dimension        Dim             ....  222

ORBITAL ENERGIES
----------------

  NO   OCC          E(Eh)            E(eV)
   0   2.0000     -18.996451      -516.9197
   1   2.0000     -18.926096      -515.0052
   2   2.0000     -10.150229      -276.2018
   3   2.0000     -10.092111      -274.6203
   4   2.0000     -10.040730      -273.2222
   5   2.0000     -10.036048      -273.0948
   6   2.0000     -10.032546      -272.9995
   7   2.0000     -10.020068      -272.6599
   8   2.0000      -1.072148       -29.1746
   9   2.0000      -0.972638       -26.4668
  10   2.0000      -0.776193       -21.1213
  11   2.0000      -0.741784       -20.1850
  12   2.0000      -0.677870       -18.4458
  13   2.0000      -0.616067       -16.7640
  14   2.0000      -0.570266       -15.5177
  15   2.0000      -0.533956       -14.5297
  16   2.0000      -0.468789       -12.7564
  17   2.0000      -0.457786       -12.4570
  18   2.0000      -0.438321       -11.9273
  19   2.0000      -0.425229       -11.5711
  20   2.0000      -0.408630       -11.1194
  21   2.0000      -0.380581       -10.3561
  22   2.0000      -0.378511       -10.2998
  23   2.0000      -0.370812       -10.0903
  24   2.0000      -0.354814        -9.6550
  25   2.0000      -0.335229        -9.1221
  26   2.0000      -0.327328        -8.9071
  27   2.0000      -0.313219        -8.5231
  28   2.0000      -0.310298        -8.4436
  29   2.0000      -0.308013        -8.3815
  30   2.0000      -0.271247        -7.3810
  31   2.0000      -0.230086        -6.2609
  32   0.0000      -0.014362        -0.3908
  33   0.0000       0.070477         1.9178
  34   0.0000       0.094449         2.5701
  35   0.0000       0.113801         3.0967
  36   0.0000       0.118897         3.2354

MULLIKEN ATOMIC CHARGES
-----------------------
   0 C :   -0.480456
   1 C :   -0.221404
   2 C :   -0.321482
   3 C :    0.344327
   4 O :   -0.418050
   5 O :   -0.157103
   6 C :   -0.146572
   7 C :   -0.443029
   8 H :    0.148853
   9 H :    0.152963
  10 H :    0.147358
  11 H :    0.151653
  12 H :    0.144676
  13 H :    0.160377
  14 H :    0.170765
  15 H :    0.162886
  16 H :    0.152444
  17 H :    0.147495
  18 H :    0.152391
  19 H :    0.151907
Sum of atomic charges:    0.0000000

LOEWDIN ATOMIC CHARGES
----------------------
   0 C :   -0.414561
   1 C :   -0.294510
   2 C :   -0.230978
   3 C :    0.349277
   4 O :   -0.425589
   5 O :   -0.603604
   6 C :    0.034292
   7 C :   -0.386924
   8 H :    0.153128
   9 H :    0.155310
  10 H :    0.151865
  11 H :    0.164433
  12 H :    0.152925
  13 H :    0.179723
  14 H :    0.177846
  15 H :    0.182178
  16 H :    0.177301
  17 H :    0.159706
  18 H :    0.159463
  19 H :    0.158717

  Mayer bond orders larger than 0.100000
B(  0-C ,  1-C ) :   0.9130 B(  0-C ,  8-H ) :   0.9785 B(  0-C ,  9-H ) :   0.9711
B(  0-C , 10-H ) :   0.9703 B(  1-C ,  2-C ) :   0.8866 B(  1-C , 11-H ) :   0.9706
B(  1-C , 12-H ) :   0.9642 B(  2-C ,  3-C ) :   0.9587 B(  2-C , 13-H ) :   0.9439
B(  2-C , 14-H ) :   1.0063 B(  3-C ,  4-O ) :   1.8286 B(  3-C ,  5-O ) :   1.0552
B(  5-O ,  6-C ) :   0.8070 B(  6-C ,  7-C ) :   0.9406 B(  6-C , 15-H ) :   0.9578
B(  6-C , 16-H ) :   0.9505 B(  7-C , 17-H ) :   0.9682 B(  7-C , 18-H ) :   0.9704
B(  7-C , 19-H ) :   0.9737

Dispersion correction           -0.005124097
FINAL SINGLE POINT ENERGY      -386.235940324753

DIPOLE MOMENT
-------------

Method             : SCF
Type of density    : Electron Density
Multiplicity       :   1
Irrep              :   0
Energy             :  -386.2424608327332294 Eh
Relativity type    :
Basis              : AO
                                X                 Y                 Z
Electronic contribution:      1.507626827       5.638005447      -1.346991092
Nuclear contribution   :     -1.347143233      -6.258156177       2.022906894
                        -----------------------------------------
Total Dipole Moment    :      0.160483594      -0.620150731       0.675915803
                        -----------------------------------------
Magnitude (a.u.)       :      0.931237931
Magnitude (Debye)      :      2.367018712

Rotational constants in cm-1:             0.102919             0.039856             0.034172
Rotational constants in MHz :          3085.446464          1194.844183          1024.460324

                             ****ORCA TERMINATED NORMALLY****
TOTAL RUN TIME: 0 days 0 hours 0 minutes 28 seconds 188 msec
