                         Program Version 6.0.0  -   RELEASE  -
|  1> ! r2scan-3c def2/J RI DEFGRID2 scfconv6 printgap
|  2> %output
|  3>     printlevel normal
|  4> end
|  5> %cpcm
|  6>     smd true
|  7>     smdsolvent "water"
|  8> end
|  9> * xyz 0 1
| 10> C -2.3913580306 -1.1840538398 -0.5970456272
| 11> C -2.0235950771 -0.5519937281 0.7399656973
| 12> C -1.4282034692 0.8489192091 0.5591454894
| 13> C -0.1179122956 0.8064045618 -0.1843571886
| 14> O 0.1164596577 1.4108909031 -1.2122048808
| 15> O 0.7722291892 0.031824935 0.4173562058
| 16> C 2.0683431241 -0.0974025143 -0.1886251877
| 17> C 2.8306113749 -1.18198393 0.5477107124
| 18> H -3.1314175566 -0.5784850785 -1.1150200664
| 19> H -1.5149713104 -1.2650842807 -1.2376460324
| 20> H -2.8018542286 -2.1789882645 -0.4472607556
| 21> H -1.2989538636 -1.179746489 1.2596877664
| 22> H -2.9159306335 -0.4717147526 1.3615483779
| 23> H -1.236630197 1.2908688587 1.5380130994
| 24> H -2.1103790765 1.4908613669 0.0016305027
| 25> H 1.9348781083 -0.3381211569 -1.2486546274
| 26> H 2.5761947888 0.8704430156 -0.1217631796
| 27> H 3.8228717978 -1.2771425629 0.1193818509
| 28> H 2.9161398086 -0.9253172982 1.5993490898
| 29> H 2.3100745904 -2.130998968 0.4595308904
| 30> *
| 31>
| 32>                          ****END OF INPUT****

CARTESIAN COORDINATES (ANGSTROEM)
---------------------------------
  C     -2.391358   -1.184054   -0.597046
  C     -2.023595   -0.551994    0.739966
  C     -1.428203    0.848919    0.559145
  C     -0.117912    0.806405   -0.184357
  O      0.116460    1.410891   -1.212205
  O      0.772229    0.031825    0.417356
  C      2.068343   -0.097403   -0.188625
  C      2.830611   -1.181984    0.547711
  H     -3.131418   -0.578485   -1.115020
  H     -1.514971   -1.265084   -1.237646
  H     -2.801854   -2.178988   -0.447261
  H     -1.298954   -1.179746    1.259688
  H     -2.915931   -0.471715    1.361548
  H     -1.236630    1.290869    1.538013
  H     -2.110379    1.490861    0.001631
  H      1.934878   -0.338121   -1.248655
  H      2.576195    0.870443   -0.121763
  H      3.822872   -1.277143    0.119382
  H      2.916140   -0.925317    1.599349
  H      2.310075   -2.130999    0.459531

 Total Charge           Charge          ....    0
 Multiplicity           Mult            ....    1
 Number of Electrons    NEL             ....   64
 Basis Dimension        Dim             ....  222

ORBITAL ENERGIES
----------------

  NO   OCC          E(Eh)            E(eV)
   0   2.0000     -19.002408      -517.0818
   1   2.0000     -18.943366      -515.4752
   2   2.0000     -10.161886      -276.5190
   3   2.0000     -10.084311      -274.4080
   4   2.0000     -10.035629      -273.0833
   5   2.0000     -10.028056      -272.8773
   6   2.0000     -10.018868      -272.6273
   7   2.0000     -10.011700      -272.4322
   8   2.0000      -1.079898       -29.3855
   9   2.0000      -0.987747       -26.8780
  10   2.0000      -0.771388       -20.9905
  11   2.0000      -0.733536       -19.9605
  12   2.0000      -0.671936       -18.2843
  13   2.0000      -0.609279       -16.5793
  14   2.0000      -0.564118       -15.3504
  15   2.0000      -0.532286       -14.4842
  16   2.0000      -0.467913       -12.7325
  17   2.0000      -0.455344       -12.3905
  18   2.0000      -0.452806       -12.3215
  19   2.0000      -0.420492       -11.4422
  20   2.0000      -0.403488       -10.9795
  21   2.0000      -0.378163       -10.2903
  22   2.0000      -0.371694       -10.1143
  23   2.0000      -0.363662        -9.8958
  24   2.0000      -0.348722        -9.4892
  25   2.0000      -0.329882        -8.9765
  26   2.0000      -0.321701        -8.7539
  27   2.0000      -0.312319        -8.4986
  28   2.0000      -0.306218        -8.3326
  29   2.0000      -0.301478        -8.2036
  30   2.0000      -0.277059        -7.5392
  31   2.0000      -0.247370        -6.7313
  32   0.0000      -0.023496        -0.6394
  33   0.0000       0.075167         2.0454
  34   0.0000       0.103603         2.8192
  35   0.0000       0.121541         3.3073
  36   0.0000       0.125022         3.4020

MULLIKEN ATOMIC CHARGES
-----------------------
   0 C :   -0.526278
   1 C :   -0.217464
   2 C :   -0.341148
   3 C :    0.389488
   4 O :   -0.509276
   5 O :   -0.170356
   6 C :   -0.149840
   7 C :   -0.491837
   8 H :    0.162493
   9 H :    0.160918
  10 H :    0.161584
  11 H :    0.154867
  12 H :    0.162264
  13 H :    0.190970
  14 H :    0.179985
  15 H :    0.171952
  16 H :    0.172059
  17 H :    0.169042
  18 H :    0.164792
  19 H :    0.165784
Sum of atomic charges:    0.0000000

LOEWDIN ATOMIC CHARGES
----------------------
   0 C :   -0.422765
   1 C :   -0.291077
   2 C :   -0.229065
   3 C :    0.359339
   4 O :   -0.490066
   5 O :   -0.602968
   6 C :    0.036621
   7 C :   -0.389907
   8 H :    0.156019
   9 H :    0.155819
  10 H :    0.156457
  11 H :    0.165147
  12 H :    0.160000
  13 H :    0.191804
  14 H :    0.181583
  15 H :    0.185762
  16 H :    0.183669
  17 H :    0.168367
  18 H :    0.162853
  19 H :    0.162408

  Mayer bond orders larger than 0.100000
B(  0-C ,  1-C ) :   0.8996 B(  0-C ,  8-H ) :   0.9773 B(  0-C ,  9-H ) :   0.9691
B(  0-C , 10-H ) :   0.9663 B(  1-C ,  2-C ) :   0.8771 B(  1-C , 11-H ) :   0.9705
B(  1-C , 12-H ) :   0.9609 B(  2-C ,  3-C ) :   0.9571 B(  2-C , 13-H ) :   0.9334
B(  2-C , 14-H ) :   1.0023 B(  3-C ,  4-O ) :   1.7531 B(  3-C ,  5-O ) :   1.0875
B(  5-O ,  6-C ) :   0.7926 B(  6-C ,  7-C ) :   0.9432 B(  6-C , 15-H ) :   0.9510
B(  6-C , 16-H ) :   0.9420 B(  7-C , 17-H ) :   0.9617 B(  7-C , 18-H ) :   0.9680
B(  7-C , 19-H ) :   0.9719

Dispersion correction           -0.005124097
FINAL SINGLE POINT ENERGY      -386.241825502434

DIPOLE MOMENT
-------------

Method             : SCF
Type of density    : Electron Density
Multiplicity       :   1
Irrep              :   0
Energy             :  -386.2483460104140249 Eh
Relativity type    :
Basis              : AO
                                X                 Y                 Z
Electronic contribution:      1.524473020       5.430724879      -1.051564457
Nuclear contribution   :     -1.347143233      -6.258156177       2.022906894
                        -----------------------------------------
Total Dipole Moment    :      0.177329787      -0.827431299       0.971342438
                        -----------------------------------------
Magnitude (a.u.)       :      1.288252513
Magnitude (Debye)      :      3.274477662

Rotational constants in cm-1:             0.102919             0.039856             0.034172
Rotational constants in MHz :          3085.446464          1194.844183          1024.460324

                             ****ORCA TERMINATED NORMALLY****
TOTAL RUN TIME: 0 days 0 hours 0 minutes 37 seconds 825 msec
