                         Program Version 6.0.0  -   RELEASE  -
|  1> ! r2scan-3c def2/J RI DEFGRID2 scfconv6 printgap
|  2> %output
|  3>     printlevel normal
|  4> end
|  5> * xyz 0 1
|  6> C -3.7861750098 -0.6264198511 -0.245917959
|  7> C -2.6761061458 0.1048162704 0.4996538669
|  8> C -1.3116451849 -0.1556368787 -0.1336534224
|  9> C -0.1925842183 0.5838369039 0.6113277087
| 10> C 1.1165350375 0.3786728715 -0.1014329085
| 11> O 1.3823117623 0.8041359892 -1.2064011246
| 12> O 1.9605353039 -0.3553791296 0.6146519
| 13> C 3.2378021402 -0.6466251861 0.0402930803
| 14> H -4.7493589495 -0.4282880883 0.216777541
| 15> H -3.8278869321 -0.2988748262 -1.2821443611
| 16> H -3.6119461755 -1.6997997549 -0.2334232304
| 17> H -2.8784856334 1.1773540413 0.4906617858
| 18> H -2.658707894 -0.2237926655 1.5403334927
| 19> H -1.3174042903 0.1746482022 -1.1746549109
| 20> H -1.1038394677 -1.2277345413 -0.1236279345
| 21> H -0.1016129314 0.2174436509 1.632724306
| 22> H -0.4139735058 1.6519343076 0.6186862897
| 23> H 3.7816729076 0.280175033 -0.1453821818
| 24> H 3.1094859124 -1.1773985088 -0.9036561003
| 25> H 3.753470918 -1.2630050209 0.7696138038
| 26> *
| 27>
| 28>                          ****END OF INPUT****

CARTESIAN COORDINATES (ANGSTROEM)
---------------------------------
  C     -3.786175   -0.626420   -0.245918
  C     -2.676106    0.104816    0.499654
  C     -1.311645   -0.155637   -0.133653
  C     -0.192584    0.583837    0.611328
  C      1.116535    0.378673   -0.101433
  O      1.382312    0.804136   -1.206401
  O      1.960535   -0.355379    0.614652
  C      3.237802   -0.646625    0.040293
  H     -4.749359   -0.428288    0.216778
  H     -3.827887   -0.298875   -1.282144
  H     -3.611946   -1.699800   -0.233423
  H     -2.878486    1.177354    0.490662
  H     -2.658708   -0.223793    1.540333
  H     -1.317404    0.174648   -1.174655
  H     -1.103839   -1.227735   -0.123628
  H     -0.101613    0.217444    1.632724
  H     -0.413974    1.651934    0.618686
  H      3.781673    0.280175   -0.145382
  H      3.109486   -1.177399   -0.903656
  H      3.753471   -1.263005    0.769614

 Total Charge           Charge          ....    0
 Multiplicity           Mult            ....    1
 Number of Electrons    NEL             ....   64
 Basis Dimension        Dim             ....  222

ORBITAL ENERGIES
----------------

  NO   OCC          E(Eh)            E(eV)
   0   2.0000     -18.999726      -517.0088
   1   2.0000     -18.927526      -515.0442
   2   2.0000     -10.151040      -276.2238
   3   2.0000     -10.086594      -274.4702
   4   2.0000     -10.041326      -273.2384
   5   2.0000     -10.034808      -273.0610
   6   2.0000     -10.030257      -272.9372
   7   2.0000     -10.019205      -272.6364
   8   2.0000      -1.073057       -29.1994
   9   2.0000      -0.974972       -26.5303
  10   2.0000      -0.778808       -21.1924
  11   2.0000      -0.729165       -19.8416
  12   2.0000      -0.686541       -18.6817
  13   2.0000      -0.616592       -16.7783
  14   2.0000      -0.554612       -15.0918
  15   2.0000      -0.532792       -14.4980
  16   2.0000      -0.465729       -12.6731
  17   2.0000      -0.457796       -12.4573
  18   2.0000      -0.450180       -12.2500
  19   2.0000      -0.434174       -11.8145
  20   2.0000      -0.405893       -11.0449
  21   2.0000      -0.390877       -10.6363
  22   2.0000      -0.386110       -10.5066
  23   2.0000      -0.366026        -9.9601
  24   2.0000      -0.348470        -9.4823
  25   2.0000      -0.329074        -8.9546
  26   2.0000      -0.323662        -8.8073
  27   2.0000      -0.310277        -8.4431
  28   2.0000      -0.301347        -8.2001
  29   2.0000      -0.300563        -8.1787
  30   2.0000      -0.273447        -7.4409
  31   2.0000      -0.235098        -6.3973
  32   0.0000      -0.015362        -0.4180
  33   0.0000       0.066087         1.7983
  34   0.0000       0.096639         2.6297
  35   0.0000       0.100071         2.7231
  36   0.0000       0.120343         3.2747

MULLIKEN ATOMIC CHARGES
-----------------------
   0 C :   -0.465511
   1 C :   -0.236318
   2 C :   -0.274810
   3 C :   -0.327528
   4 C :    0.398416
   5 O :   -0.425646
   6 O :   -0.187922
   7 C :   -0.296149
   8 H :    0.148277
   9 H :    0.144832
  10 H :    0.142752
  11 H :    0.139191
  12 H :    0.136473
  13 H :    0.165912
  14 H :    0.139987
  15 H :    0.161100
  16 H :    0.163488
  17 H :    0.160847
  18 H :    0.162290
  19 H :    0.150318
Sum of atomic charges:   -0.0000000

LOEWDIN ATOMIC CHARGES
----------------------
   0 C :   -0.422704
   1 C :   -0.313553
   2 C :   -0.281839
   3 C :   -0.227883
   4 C :    0.352557
   5 O :   -0.426327
   6 O :   -0.603762
   7 C :   -0.045030
   8 H :    0.151075
   9 H :    0.151331
  10 H :    0.150247
  11 H :    0.152187
  12 H :    0.151536
  13 H :    0.167481
  14 H :    0.158141
  15 H :    0.177034
  16 H :    0.179695
  17 H :    0.176733
  18 H :    0.177136
  19 H :    0.175944

  Mayer bond orders larger than 0.100000
B(  0-C ,  1-C ) :   0.9028 B(  0-C ,  8-H ) :   0.9750 B(  0-C ,  9-H ) :   0.9826
B(  0-C , 10-H ) :   0.9828 B(  1-C ,  2-C ) :   0.9217 B(  1-C , 11-H ) :   0.9785
B(  1-C , 12-H ) :   0.9692 B(  2-C ,  3-C ) :   0.9224 B(  2-C , 13-H ) :   0.9687
B(  2-C , 14-H ) :   0.9611 B(  3-C ,  4-C ) :   0.9584 B(  3-C , 15-H ) :   0.9832
B(  3-C , 16-H ) :   0.9670 B(  4-C ,  5-O ) :   1.8110 B(  4-C ,  6-O ) :   1.0536
B(  6-O ,  7-C ) :   0.8532 B(  7-C , 17-H ) :   0.9619 B(  7-C , 18-H ) :   0.9626
B(  7-C , 19-H ) :   0.9692

Dispersion correction           -0.004887279
FINAL SINGLE POINT ENERGY      -386.230920934630

DIPOLE MOMENT
-------------

Method             : SCF
Type of density    : Electron Density
Multiplicity       :   1
Irrep              :   0
Energy             :  -386.2379117464856790 Eh
Relativity type    :
Basis              : AO
                                X                 Y                 Z
Electronic contribution:      9.329617869       2.223096194      -0.672786194
Nuclear contribution   :     -9.349535499      -2.636478610       1.310201980
                        -----------------------------------------
Total Dipole Moment    :     -0.019917630      -0.413382416       0.637415786
                        -----------------------------------------
Magnitude (a.u.)       :      0.759987248
Magnitude (Debye)      :      1.931734068

Rotational constants in cm-1:             0.191294             0.025794             0.024959
Rotational constants in MHz :          5734.859697           773.292714           748.245055

                             ****ORCA TERMINATED NORMALLY****
TOTAL RUN TIME: 0 days 0 hours 0 minutes 27 seconds 955 msec
