                         Program Version 6.0.0  -   RELEASE  -
|  1> ! r2scan-3c def2/J RI DEFGRID2 scfconv6 printgap
|  2> %output
|  3>     printlevel normal
|  4> end
|  5> %cpcm
|  6>     smd true
|  7>     smdsolvent "water"
|  8> end
|  9> * xyz 0 1
| 10> C -3.7861750098 -0.6264198511 -0.245917959
| 11> C -2.6761061458 0.1048162704 0.4996538669
| 12> C -1.3116451849 -0.1556368787 -0.1336534224
| 13> C -0.1925842183 0.5838369039 0.6113277087
| 14> C 1.1165350375 0.3786728715 -0.1014329085
| 15> O 1.3823117623 0.8041359892 -1.2064011246
| 16> O 1.9605353039 -0.3553791296 0.6146519
| 17> C 3.2378021402 -0.6466251861 0.0402930803
| 18> H -4.7493589495 -0.4282880883 0.216777541
| 19> H -3.8278869321 -0.2988748262 -1.2821443611
| 20> H -3.6119461755 -1.6997997549 -0.2334232304
| 21> H -2.8784856334 1.1773540413 0.4906617858
| 22> H -2.658707894 -0.2237926655 1.5403334927
| 23> H -1.3174042903 0.1746482022 -1.1746549109
| 24> H -1.1038394677 -1.2277345413 -0.1236279345
| 25> H -0.1016129314 0.2174436509 1.632724306
| 26> H -0.4139735058 1.6519343076 0.6186862897
| 27> H 3.7816729076 0.280175033 -0.1453821818
| 28> H 3.1094859124 -1.1773985088 -0.9036561003
| 29> H 3.753470918 -1.2630050209 0.7696138038
| 30> *
| 31>
| 32>                          ****END OF INPUT****

CARTESIAN COORDINATES (ANGSTROEM)
---------------------------------
  C     -3.786175   -0.626420   -0.245918
  C     -2.676106    0.104816    0.499654
  C     -1.311645   -0.155637   -0.133653
  C     -0.192584    0.583837    0.611328
  C      1.116535    0.378673   -0.101433
  O      1.382312    0.804136   -1.206401
  O      1.960535   -0.355379    0.614652
  C      3.237802   -0.646625    0.040293
  H     -4.749359   -0.428288    0.216778
  H     -3.827887   -0.298875   -1.282144
  H     -3.611946   -1.699800   -0.233423
  H     -2.878486    1.177354    0.490662
  H     -2.658708   -0.223793    1.540333
  H     -1.317404    0.174648   -1.174655
  H     -1.103839   -1.227735   -0.123628
  H     -0.101613    0.217444    1.632724
  H     -0.413974    1.651934    0.618686
  H      3.781673    0.280175   -0.145382
  H      3.109486   -1.177399   -0.903656
  H      3.753471   -1.263005    0.769614

 Total Charge           Charge          ....    0
 Multiplicity           Mult            ....    1
 Number of Electrons    NEL             ....   64
 Basis Dimension        Dim             ....  222

ORBITAL ENERGIES
----------------

  NO   OCC          E(Eh)            E(eV)
   0   2.0000     -19.005282      -517.1600
   1   2.0000     -18.944041      -515.4936
   2   2.0000     -10.161966      -276.5212
   3   2.0000     -10.076479      -274.1949
   4   2.0000     -10.035407      -273.0773
   5   2.0000     -10.027021      -272.8491
   6   2.0000     -10.019388      -272.6414
   7   2.0000     -10.008828      -272.3541
   8   2.0000      -1.080363       -29.3982
   9   2.0000      -0.989134       -26.9157
  10   2.0000      -0.771940       -21.0056
  11   2.0000      -0.723578       -19.6896
  12   2.0000      -0.679885       -18.5006
  13   2.0000      -0.609190       -16.5769
  14   2.0000      -0.545709       -14.8495
  15   2.0000      -0.531244       -14.4559
  16   2.0000      -0.467558       -12.7229
  17   2.0000      -0.459327       -12.4989
  18   2.0000      -0.451612       -12.2890
  19   2.0000      -0.434044       -11.8109
  20   2.0000      -0.398568       -10.8456
  21   2.0000      -0.389758       -10.6059
  22   2.0000      -0.377941       -10.2843
  23   2.0000      -0.363114        -9.8808
  24   2.0000      -0.344047        -9.3620
  25   2.0000      -0.327227        -8.9043
  26   2.0000      -0.318668        -8.6714
  27   2.0000      -0.301718        -8.2102
  28   2.0000      -0.295605        -8.0438
  29   2.0000      -0.291104        -7.9213
  30   2.0000      -0.281104        -7.6492
  31   2.0000      -0.251790        -6.8516
  32   0.0000      -0.023642        -0.6433
  33   0.0000       0.070572         1.9203
  34   0.0000       0.105661         2.8752
  35   0.0000       0.109540         2.9807
  36   0.0000       0.130609         3.5540

MULLIKEN ATOMIC CHARGES
-----------------------
   0 C :   -0.509559
   1 C :   -0.249737
   2 C :   -0.273321
   3 C :   -0.353171
   4 C :    0.444184
   5 O :   -0.512109
   6 O :   -0.203137
   7 C :   -0.330641
   8 H :    0.158566
   9 H :    0.154443
  10 H :    0.155141
  11 H :    0.151294
  12 H :    0.149440
  13 H :    0.160756
  14 H :    0.157458
  15 H :    0.176892
  16 H :    0.188163
  17 H :    0.178205
  18 H :    0.178435
  19 H :    0.178698
Sum of atomic charges:   -0.0000000

LOEWDIN ATOMIC CHARGES
----------------------
   0 C :   -0.431028
   1 C :   -0.312807
   2 C :   -0.281446
   3 C :   -0.225520
   4 C :    0.362456
   5 O :   -0.488904
   6 O :   -0.604953
   7 C :   -0.042491
   8 H :    0.153593
   9 H :    0.152972
  10 H :    0.153000
  11 H :    0.155516
  12 H :    0.155646
  13 H :    0.164600
  14 H :    0.163355
  15 H :    0.184666
  16 H :    0.188097
  17 H :    0.182360
  18 H :    0.182515
  19 H :    0.188371

  Mayer bond orders larger than 0.100000
B(  0-C ,  1-C ) :   0.8901 B(  0-C ,  8-H ) :   0.9721 B(  0-C ,  9-H ) :   0.9812
B(  0-C , 10-H ) :   0.9807 B(  1-C ,  2-C ) :   0.9187 B(  1-C , 11-H ) :   0.9787
B(  1-C , 12-H ) :   0.9688 B(  2-C ,  3-C ) :   0.9093 B(  2-C , 13-H ) :   0.9712
B(  2-C , 14-H ) :   0.9565 B(  3-C ,  4-C ) :   0.9587 B(  3-C , 15-H ) :   0.9743
B(  3-C , 16-H ) :   0.9614 B(  4-C ,  5-O ) :   1.7454 B(  4-C ,  6-O ) :   1.0791
B(  6-O ,  7-C ) :   0.8331 B(  7-C , 17-H ) :   0.9562 B(  7-C , 18-H ) :   0.9571
B(  7-C , 19-H ) :   0.9591

Dispersion correction           -0.004887279
FINAL SINGLE POINT ENERGY      -386.235897049011

DIPOLE MOMENT
-------------

Method             : SCF
Type of density    : Electron Density
Multiplicity       :   1
Irrep              :   0
Energy             :  -386.2428878608670857 Eh
Relativity type    :
Basis              : AO
                                X                 Y                 Z
Electronic contribution:      9.326979223       2.071781443      -0.356235507
Nuclear contribution   :     -9.349535499      -2.636478610       1.310201980
                        -----------------------------------------
Total Dipole Moment    :     -0.022556276      -0.564697167       0.953966473
                        -----------------------------------------
Magnitude (a.u.)       :      1.108802826
Magnitude (Debye)      :      2.818352806

Rotational constants in cm-1:             0.191294             0.025794             0.024959
Rotational constants in MHz :          5734.859697           773.292714           748.245055

                             ****ORCA TERMINATED NORMALLY****
TOTAL RUN TIME: 0 days 0 hours 0 minutes 32 seconds 782 msec
