                         Program Version 6.0.0  -   RELEASE  -
|  1> ! pbe def2-sv(p) def2/J RI DEFGRID1 loosescf d4 GCP(DFT/SV(P)) printgap
|  2> %output
|  3>     printlevel normal
|  4> end
|  5> * xyz 0 1
|  6> C 1.4595096893 -0.4765116534 -1.4305829738
|  7> C 1.5236747604 -0.176781806 0.0561070623
|  8> C 1.9517521491 1.2523860585 0.3519276648
|  9> S -0.0060807896 -0.6532226486 0.9807648065
| 10> C -1.5251171681 0.0247397714 0.1713298133
| 11> C -1.4508254821 1.512040798 -0.1229541551
| 12> C -1.9465072357 -0.7956823273 -1.0380788124
| 13> H 0.8216875304 0.2375464461 -1.9455574308
| 14> H 2.4597867037 -0.4032764644 -1.8532975028
| 15> H 1.0837519371 -1.4820319306 -1.6032462029
| 16> H 2.234150865 -0.8629430301 0.5295261224
| 17> H 2.9762582461 1.3986343948 0.0152977928
| 18> H 1.9068755777 1.4452023122 1.4211272251
| 19> H 1.3171137513 1.970128968 -0.1592936753
| 20> H -2.2437487168 -0.1448755072 0.9803401928
| 21> H -1.0809779811 2.0562836195 0.742554176
| 22> H -0.8035649355 1.7097528867 -0.973760158
| 23> H -2.447032803 1.8788932 -0.3630021179
| 24> H -1.9061312068 -1.8571515413 -0.8056770651
| 25> H -1.3051619469 -0.6005462124 -1.8923934531
| 26> H -2.9683873112 -0.5383089544 -1.3097705168
| 27> *
| 28>
| 29>                          ****END OF INPUT****

CARTESIAN COORDINATES (ANGSTROEM)
---------------------------------
  C      1.459510   -0.476512   -1.430583
  C      1.523675   -0.176782    0.056107
  C      1.951752    1.252386    0.351928
  S     -0.006081   -0.653223    0.980765
  C     -1.525117    0.024740    0.171330
  C     -1.450825    1.512041   -0.122954
  C     -1.946507   -0.795682   -1.038079
  H      0.821688    0.237546   -1.945557
  H      2.459787   -0.403276   -1.853298
  H      1.083752   -1.482032   -1.603246
  H      2.234151   -0.862943    0.529526
  H      2.976258    1.398634    0.015298
  H      1.906876    1.445202    1.421127
  H      1.317114    1.970129   -0.159294
  H     -2.243749   -0.144876    0.980340
  H     -1.080978    2.056284    0.742554
  H     -0.803565    1.709753   -0.973760
  H     -2.447033    1.878893   -0.363002
  H     -1.906131   -1.857152   -0.805677
  H     -1.305162   -0.600546   -1.892393
  H     -2.968387   -0.538309   -1.309771

 Total Charge           Charge          ....    0
 Multiplicity           Mult            ....    1
 Number of Electrons    NEL             ....   66
 Basis Dimension        Dim             ....  130

ORBITAL ENERGIES
----------------

  NO   OCC          E(Eh)            E(eV)
   0   2.0000     -88.000187     -2394.6068
   1   2.0000      -9.922133      -269.9950
   2   2.0000      -9.922036      -269.9923
   3   2.0000      -9.880668      -268.8667
   4   2.0000      -9.880652      -268.8662
   5   2.0000      -9.875873      -268.7362
   6   2.0000      -9.875840      -268.7353
   7   2.0000      -7.644090      -208.0063
   8   2.0000      -5.673056      -154.3717
   9   2.0000      -5.668555      -154.2492
  10   2.0000      -5.660308      -154.0248
  11   2.0000      -0.745857       -20.2958
  12   2.0000      -0.712395       -19.3853
  13   2.0000      -0.621095       -16.9008
  14   2.0000      -0.618423       -16.8281
  15   2.0000      -0.612654       -16.6712
  16   2.0000      -0.529979       -14.4215
  17   2.0000      -0.485840       -13.2204
  18   2.0000      -0.419135       -11.4052
  19   2.0000      -0.403911       -10.9910
  20   2.0000      -0.397173       -10.8076
  21   2.0000      -0.375290       -10.2122
  22   2.0000      -0.374939       -10.2026
  23   2.0000      -0.363404        -9.8887
  24   2.0000      -0.353826        -9.6281
  25   2.0000      -0.337276        -9.1777
  26   2.0000      -0.318694        -8.6721
  27   2.0000      -0.316791        -8.6203
  28   2.0000      -0.307977        -8.3805
  29   2.0000      -0.304261        -8.2794
  30   2.0000      -0.270616        -7.3638
  31   2.0000      -0.242491        -6.5985
  32   2.0000      -0.173624        -4.7245
  33   0.0000       0.017316         0.4712
  34   0.0000       0.037142         1.0107
  35   0.0000       0.047148         1.2830
  36   0.0000       0.055765         1.5174
  37   0.0000       0.064426         1.7531

MULLIKEN ATOMIC CHARGES
-----------------------
   0 C :   -0.228239
   1 C :   -0.291603
   2 C :   -0.211181
   3 S :   -0.061169
   4 C :   -0.291379
   5 C :   -0.228138
   6 C :   -0.211429
   7 H :    0.115374
   8 H :    0.101810
   9 H :    0.115552
  10 H :    0.120215
  11 H :    0.097195
  12 H :    0.107996
  13 H :    0.103407
  14 H :    0.120322
  15 H :    0.115608
  16 H :    0.115266
  17 H :    0.101744
  18 H :    0.108143
  19 H :    0.103374
  20 H :    0.097131
Sum of atomic charges:    0.0000000

LOEWDIN ATOMIC CHARGES
----------------------
   0 C :   -0.345362
   1 C :   -0.249402
   2 C :   -0.348781
   3 S :    0.192678
   4 C :   -0.249372
   5 C :   -0.345353
   6 C :   -0.348825
   7 H :    0.116814
   8 H :    0.122145
   9 H :    0.123175
  10 H :    0.126920
  11 H :    0.118704
  12 H :    0.120998
  13 H :    0.118446
  14 H :    0.126940
  15 H :    0.123190
  16 H :    0.116784
  17 H :    0.122111
  18 H :    0.121034
  19 H :    0.118436
  20 H :    0.118720

  Mayer bond orders larger than 0.100000
B(  0-C ,  1-C ) :   1.0939 B(  0-C ,  7-H ) :   0.9379 B(  0-C ,  8-H ) :   0.9368
B(  0-C ,  9-H ) :   0.9415 B(  1-C ,  2-C ) :   1.0795 B(  1-C ,  3-S ) :   1.0303
B(  1-C , 10-H ) :   0.9024 B(  2-C , 11-H ) :   0.9372 B(  2-C , 12-H ) :   0.9465
B(  2-C , 13-H ) :   0.9443 B(  3-S ,  4-C ) :   1.0302 B(  4-C ,  5-C ) :   1.0935
B(  4-C ,  6-C ) :   1.0796 B(  4-C , 14-H ) :   0.9025 B(  5-C , 15-H ) :   0.9415
B(  5-C , 16-H ) :   0.9380 B(  5-C , 17-H ) :   0.9368 B(  6-C , 18-H ) :   0.9464
B(  6-C , 19-H ) :   0.9443 B(  6-C , 20-H ) :   0.9373

Dispersion correction           -0.019761130
FINAL SINGLE POINT ENERGY      -634.342202627852

DIPOLE MOMENT
-------------

Method             : SCF
Type of density    : Electron Density
Multiplicity       :   1
Irrep              :   0
Energy             :  -634.4086045438335759 Eh
Relativity type    :
Basis              : AO
                                X                 Y                 Z
Electronic contribution:     -0.039000437      -4.196975616       6.300186073
Nuclear contribution   :      0.042036699       4.528960197      -6.799274799
                        -----------------------------------------
Total Dipole Moment    :      0.003036262       0.331984582      -0.499088726
                        -----------------------------------------
Magnitude (a.u.)       :      0.599426841
Magnitude (Debye)      :      1.523621946

Rotational constants in cm-1:             0.090479             0.049475             0.047621
Rotational constants in MHz :          2712.486645          1483.220470          1427.637086

                             ****ORCA TERMINATED NORMALLY****
TOTAL RUN TIME: 0 days 0 hours 0 minutes 9 seconds 570 msec
