                         Program Version 6.0.0  -   RELEASE  -
|  1> ! pbe def2-sv(p) def2/J RI DEFGRID1 loosescf d4 GCP(DFT/SV(P)) printgap
|  2> %output
|  3>     printlevel normal
|  4> end
|  5> * xyz 0 1
|  6> C -3.3919295327 0.4993490727 0.6699328019
|  7> C -2.7791849996 -0.6158945892 -0.1696586324
|  8> C -1.3811277605 -0.28123838 -0.6884027599
|  9> C -0.3379767927 -0.202977739 0.4265346985
| 10> C 1.0209558134 0.1608926086 -0.1086674959
| 11> O 1.2274104079 0.8671453493 -1.0730443554
| 12> O 1.9871680454 -0.3804651292 0.6270440334
| 13> C 3.3515388215 -0.1148631626 0.2851309543
| 14> H -4.4185656601 0.252079492 0.9282344731
| 15> H -2.838892089 0.6466919291 1.5936451201
| 16> H -3.393693756 1.434426452 0.1143518256
| 17> H -2.7350875484 -1.5341001243 0.4190528313
| 18> H -3.4246049038 -0.8041502124 -1.0295647143
| 19> H -1.399097286 0.672278295 -1.2196622244
| 20> H -1.0717332556 -1.0466540347 -1.403306141
| 21> H -0.258665411 -1.1448939273 0.9689913582
| 22> H -0.6137678173 0.5783177076 1.1379977546
| 23> H 3.402813518 0.7253081898 -0.4082436389
| 24> H 3.7717332054 -1.0067459506 -0.1780097623
| 25> H 3.8715759569 0.1125466718 1.2123789667
| 26> *
| 27>
| 28>                          ****END OF INPUT****

CARTESIAN COORDINATES (ANGSTROEM)
---------------------------------
  C     -3.391930    0.499349    0.669933
  C     -2.779185   -0.615895   -0.169659
  C     -1.381128   -0.281238   -0.688403
  C     -0.337977   -0.202978    0.426535
  C      1.020956    0.160893   -0.108667
  O      1.227410    0.867145   -1.073044
  O      1.987168   -0.380465    0.627044
  C      3.351539   -0.114863    0.285131
  H     -4.418566    0.252079    0.928234
  H     -2.838892    0.646692    1.593645
  H     -3.393694    1.434426    0.114352
  H     -2.735088   -1.534100    0.419053
  H     -3.424605   -0.804150   -1.029565
  H     -1.399097    0.672278   -1.219662
  H     -1.071733   -1.046654   -1.403306
  H     -0.258665   -1.144894    0.968991
  H     -0.613768    0.578318    1.137998
  H      3.402814    0.725308   -0.408244
  H      3.771733   -1.006746   -0.178010
  H      3.871576    0.112547    1.212379

 Total Charge           Charge          ....    0
 Multiplicity           Mult            ....    1
 Number of Electrons    NEL             ....   64
 Basis Dimension        Dim             ....  136

ORBITAL ENERGIES
----------------

  NO   OCC          E(Eh)            E(eV)
   0   2.0000     -18.797340      -511.5016
   1   2.0000     -18.732810      -509.7457
   2   2.0000     -10.003477      -272.2084
   3   2.0000      -9.937924      -270.4247
   4   2.0000      -9.895615      -269.2734
   5   2.0000      -9.885563      -268.9998
   6   2.0000      -9.885487      -268.9978
   7   2.0000      -9.875615      -268.7292
   8   2.0000      -1.002564       -27.2811
   9   2.0000      -0.908482       -24.7211
  10   2.0000      -0.729381       -19.8475
  11   2.0000      -0.685106       -18.6427
  12   2.0000      -0.644047       -17.5254
  13   2.0000      -0.583903       -15.8888
  14   2.0000      -0.517874       -14.0921
  15   2.0000      -0.496258       -13.5039
  16   2.0000      -0.450904       -12.2697
  17   2.0000      -0.440914       -11.9979
  18   2.0000      -0.415932       -11.3181
  19   2.0000      -0.410169       -11.1613
  20   2.0000      -0.395941       -10.7741
  21   2.0000      -0.375248       -10.2110
  22   2.0000      -0.364252        -9.9118
  23   2.0000      -0.351446        -9.5633
  24   2.0000      -0.332482        -9.0473
  25   2.0000      -0.321397        -8.7456
  26   2.0000      -0.301319        -8.1993
  27   2.0000      -0.288697        -7.8559
  28   2.0000      -0.286351        -7.7920
  29   2.0000      -0.284125        -7.7314
  30   2.0000      -0.254862        -6.9352
  31   2.0000      -0.219679        -5.9778
  32   0.0000      -0.016614        -0.4521
  33   0.0000       0.038007         1.0342
  34   0.0000       0.058044         1.5795
  35   0.0000       0.067503         1.8368
  36   0.0000       0.072955         1.9852

MULLIKEN ATOMIC CHARGES
-----------------------
   0 C :   -0.298108
   1 C :   -0.149441
   2 C :   -0.185612
   3 C :   -0.176735
   4 C :    0.117835
   5 O :   -0.205180
   6 O :   -0.240874
   7 C :   -0.129419
   8 H :    0.104708
   9 H :    0.106702
  10 H :    0.102267
  11 H :    0.080683
  12 H :    0.087425
  13 H :    0.101883
  14 H :    0.090087
  15 H :    0.098345
  16 H :    0.120024
  17 H :    0.132333
  18 H :    0.121291
  19 H :    0.121786
Sum of atomic charges:    0.0000000

LOEWDIN ATOMIC CHARGES
----------------------
   0 C :   -0.343638
   1 C :   -0.233553
   2 C :   -0.222392
   3 C :   -0.249970
   4 C :    0.038580
   5 O :   -0.170006
   6 O :   -0.076994
   7 C :   -0.209125
   8 H :    0.120895
   9 H :    0.115354
  10 H :    0.118942
  11 H :    0.113492
  12 H :    0.118101
  13 H :    0.123185
  14 H :    0.119344
  15 H :    0.130830
  16 H :    0.143063
  17 H :    0.123759
  18 H :    0.119716
  19 H :    0.120415

  Mayer bond orders larger than 0.100000
B(  0-C ,  1-C ) :   1.1523 B(  0-C ,  8-H ) :   0.9514 B(  0-C ,  9-H ) :   0.9510
B(  0-C , 10-H ) :   0.9549 B(  1-C ,  2-C ) :   1.1249 B(  1-C , 11-H ) :   0.9233
B(  1-C , 12-H ) :   0.9270 B(  2-C ,  3-C ) :   1.1243 B(  2-C , 13-H ) :   0.9147
B(  2-C , 14-H ) :   0.9290 B(  3-C ,  4-C ) :   1.0146 B(  3-C , 15-H ) :   0.9088
B(  3-C , 16-H ) :   0.8811 B(  4-C ,  5-O ) :   2.0625 B(  4-C ,  6-O ) :   1.2206
B(  6-O ,  7-C ) :   0.9366 B(  7-C , 17-H ) :   0.9308 B(  7-C , 18-H ) :   0.9606
B(  7-C , 19-H ) :   0.9612

Dispersion correction           -0.014745279
FINAL SINGLE POINT ENERGY      -385.451905554414

DIPOLE MOMENT
-------------

Method             : SCF
Type of density    : Electron Density
Multiplicity       :   1
Irrep              :   0
Energy             :  -385.5271521882044112 Eh
Relativity type    :
Basis              : AO
                                X                 Y                 Z
Electronic contribution:      8.650453522       0.663827008      -1.467107867
Nuclear contribution   :     -8.497141959      -1.038741266       1.997184845
                        -----------------------------------------
Total Dipole Moment    :      0.153311563      -0.374914258       0.530076978
                        -----------------------------------------
Magnitude (a.u.)       :      0.667118235
Magnitude (Debye)      :      1.695679795

Rotational constants in cm-1:             0.196905             0.027083             0.025924
Rotational constants in MHz :          5903.072834           811.920747           777.193537

                             ****ORCA TERMINATED NORMALLY****
TOTAL RUN TIME: 0 days 0 hours 0 minutes 9 seconds 485 msec
