                         Program Version 6.0.0  -   RELEASE  -
|  1> ! r2scan-3c def2/J RI DEFGRID2 scfconv6 printgap
|  2> %output
|  3>     printlevel normal
|  4> end
|  5> * xyz 0 1
|  6> C -3.3557987498 -1.0050953668 0.3792242349
|  7> C -1.8512514847 -0.7901558011 0.4942869393
|  8> C -1.4023374824 0.3978220241 -0.351459828
|  9> C 0.0756737071 0.6855403247 -0.3005130932
| 10> O 0.605688968 1.5785539682 -0.9336103628
| 11> O 0.7357235733 -0.124222077 0.5132528967
| 12> C 2.1580103703 0.0397615151 0.6383543199
| 13> C 2.8960908437 -0.7614061509 -0.4231521075
| 14> H -3.6628341421 -1.8538249026 0.9840023709
| 15> H -3.8950687959 -0.1254142454 0.7218913751
| 16> H -3.6362143438 -1.1989348983 -0.6532399053
| 17> H -1.3252964562 -1.6871958259 0.1653997943
| 18> H -1.5824944545 -0.6138532444 1.5365525129
| 19> H -1.9143843919 1.3099526752 -0.0346575732
| 20> H -1.6611971085 0.2433361882 -1.4018288352
| 21> H 2.3963608083 1.10431341 0.5524231011
| 22> H 2.389046662 -0.3219521379 1.6407440888
| 23> H 3.9655825399 -0.6672059273 -0.2659436695
| 24> H 2.6151005471 -1.8093975699 -0.3643709354
| 25> H 2.6501564298 -0.3826683808 -1.4127934256
| 26> *
| 27>
| 28>                          ****END OF INPUT****

CARTESIAN COORDINATES (ANGSTROEM)
---------------------------------
  C     -3.355799   -1.005095    0.379224
  C     -1.851251   -0.790156    0.494287
  C     -1.402337    0.397822   -0.351460
  C      0.075674    0.685540   -0.300513
  O      0.605689    1.578554   -0.933610
  O      0.735724   -0.124222    0.513253
  C      2.158010    0.039762    0.638354
  C      2.896091   -0.761406   -0.423152
  H     -3.662834   -1.853825    0.984002
  H     -3.895069   -0.125414    0.721891
  H     -3.636214   -1.198935   -0.653240
  H     -1.325296   -1.687196    0.165400
  H     -1.582494   -0.613853    1.536553
  H     -1.914384    1.309953   -0.034658
  H     -1.661197    0.243336   -1.401829
  H      2.396361    1.104313    0.552423
  H      2.389047   -0.321952    1.640744
  H      3.965583   -0.667206   -0.265944
  H      2.615101   -1.809398   -0.364371
  H      2.650156   -0.382668   -1.412793

 Total Charge           Charge          ....    0
 Multiplicity           Mult            ....    1
 Number of Electrons    NEL             ....   64
 Basis Dimension        Dim             ....  222

ORBITAL ENERGIES
----------------

  NO   OCC          E(Eh)            E(eV)
   0   2.0000     -18.997585      -516.9506
   1   2.0000     -18.923861      -514.9444
   2   2.0000     -10.151450      -276.2350
   3   2.0000     -10.091534      -274.6046
   4   2.0000     -10.042200      -273.2621
   5   2.0000     -10.031618      -272.9742
   6   2.0000     -10.029224      -272.9090
   7   2.0000     -10.021182      -272.6902
   8   2.0000      -1.071988       -29.1703
   9   2.0000      -0.972324       -26.4583
  10   2.0000      -0.774839       -21.0844
  11   2.0000      -0.738256       -20.0890
  12   2.0000      -0.680209       -18.5094
  13   2.0000      -0.622110       -16.9285
  14   2.0000      -0.569731       -15.5032
  15   2.0000      -0.524009       -14.2590
  16   2.0000      -0.474277       -12.9057
  17   2.0000      -0.458973       -12.4893
  18   2.0000      -0.437826       -11.9138
  19   2.0000      -0.419906       -11.4262
  20   2.0000      -0.411120       -11.1872
  21   2.0000      -0.382850       -10.4179
  22   2.0000      -0.379307       -10.3215
  23   2.0000      -0.367638       -10.0039
  24   2.0000      -0.345222        -9.3940
  25   2.0000      -0.337106        -9.1731
  26   2.0000      -0.330491        -8.9931
  27   2.0000      -0.319391        -8.6911
  28   2.0000      -0.306947        -8.3525
  29   2.0000      -0.303621        -8.2620
  30   2.0000      -0.268548        -7.3076
  31   2.0000      -0.231264        -6.2930
  32   0.0000      -0.012157        -0.3308
  33   0.0000       0.071821         1.9543
  34   0.0000       0.091404         2.4872
  35   0.0000       0.105873         2.8809
  36   0.0000       0.120612         3.2820

MULLIKEN ATOMIC CHARGES
-----------------------
   0 C :   -0.462521
   1 C :   -0.241200
   2 C :   -0.332850
   3 C :    0.361224
   4 O :   -0.420801
   5 O :   -0.146158
   6 C :   -0.143701
   7 C :   -0.466507
   8 H :    0.148852
   9 H :    0.141638
  10 H :    0.141564
  11 H :    0.146784
  12 H :    0.148527
  13 H :    0.168410
  14 H :    0.167759
  15 H :    0.169926
  16 H :    0.148006
  17 H :    0.147093
  18 H :    0.151442
  19 H :    0.172513
Sum of atomic charges:   -0.0000000

LOEWDIN ATOMIC CHARGES
----------------------
   0 C :   -0.422441
   1 C :   -0.297968
   2 C :   -0.228458
   3 C :    0.363452
   4 O :   -0.440543
   5 O :   -0.604041
   6 C :    0.030002
   7 C :   -0.389783
   8 H :    0.151969
   9 H :    0.150445
  10 H :    0.150388
  11 H :    0.160286
  12 H :    0.161317
  13 H :    0.183982
  14 H :    0.183228
  15 H :    0.189483
  16 H :    0.177438
  17 H :    0.159371
  18 H :    0.156640
  19 H :    0.165234

  Mayer bond orders larger than 0.100000
B(  0-C ,  1-C ) :   0.8893 B(  0-C ,  8-H ) :   0.9751 B(  0-C ,  9-H ) :   0.9828
B(  0-C , 10-H ) :   0.9823 B(  1-C ,  2-C ) :   0.9332 B(  1-C , 11-H ) :   0.9652
B(  1-C , 12-H ) :   0.9657 B(  2-C ,  3-C ) :   1.0174 B(  2-C , 13-H ) :   0.9466
B(  2-C , 14-H ) :   0.9493 B(  3-C ,  4-O ) :   1.8584 B(  3-C ,  5-O ) :   1.0799
B(  5-O ,  6-C ) :   0.8044 B(  6-C ,  7-C ) :   0.9340 B(  6-C , 15-H ) :   0.9665
B(  6-C , 16-H ) :   0.9625 B(  7-C , 17-H ) :   0.9647 B(  7-C , 18-H ) :   0.9745
B(  7-C , 19-H ) :   0.9722

Dispersion correction           -0.005001647
FINAL SINGLE POINT ENERGY      -386.234802871935

DIPOLE MOMENT
-------------

Method             : SCF
Type of density    : Electron Density
Multiplicity       :   1
Irrep              :   0
Energy             :  -386.2415573768306558 Eh
Relativity type    :
Basis              : AO
                                X                 Y                 Z
Electronic contribution:      3.413450498       4.900783511      -0.880791697
Nuclear contribution   :     -3.414965294      -5.610104069       1.371163420
                        -----------------------------------------
Total Dipole Moment    :     -0.001514796      -0.709320558       0.490371723
                        -----------------------------------------
Magnitude (a.u.)       :      0.862323823
Magnitude (Debye)      :      2.191852970

Rotational constants in cm-1:             0.134049             0.033838             0.029359
Rotational constants in MHz :          4018.693775          1014.447042           880.157538

                             ****ORCA TERMINATED NORMALLY****
TOTAL RUN TIME: 0 days 0 hours 0 minutes 29 seconds 943 msec
