                         Program Version 6.0.0  -   RELEASE  -
|  1> ! r2scan-3c def2/J RI DEFGRID2 scfconv6 printgap
|  2> %output
|  3>     printlevel normal
|  4> end
|  5> %cpcm
|  6>     smd true
|  7>     smdsolvent "water"
|  8> end
|  9> * xyz 0 1
| 10> C -3.3557987498 -1.0050953668 0.3792242349
| 11> C -1.8512514847 -0.7901558011 0.4942869393
| 12> C -1.4023374824 0.3978220241 -0.351459828
| 13> C 0.0756737071 0.6855403247 -0.3005130932
| 14> O 0.605688968 1.5785539682 -0.9336103628
| 15> O 0.7357235733 -0.124222077 0.5132528967
| 16> C 2.1580103703 0.0397615151 0.6383543199
| 17> C 2.8960908437 -0.7614061509 -0.4231521075
| 18> H -3.6628341421 -1.8538249026 0.9840023709
| 19> H -3.8950687959 -0.1254142454 0.7218913751
| 20> H -3.6362143438 -1.1989348983 -0.6532399053
| 21> H -1.3252964562 -1.6871958259 0.1653997943
| 22> H -1.5824944545 -0.6138532444 1.5365525129
| 23> H -1.9143843919 1.3099526752 -0.0346575732
| 24> H -1.6611971085 0.2433361882 -1.4018288352
| 25> H 2.3963608083 1.10431341 0.5524231011
| 26> H 2.389046662 -0.3219521379 1.6407440888
| 27> H 3.9655825399 -0.6672059273 -0.2659436695
| 28> H 2.6151005471 -1.8093975699 -0.3643709354
| 29> H 2.6501564298 -0.3826683808 -1.4127934256
| 30> *
| 31>
| 32>                          ****END OF INPUT****

CARTESIAN COORDINATES (ANGSTROEM)
---------------------------------
  C     -3.355799   -1.005095    0.379224
  C     -1.851251   -0.790156    0.494287
  C     -1.402337    0.397822   -0.351460
  C      0.075674    0.685540   -0.300513
  O      0.605689    1.578554   -0.933610
  O      0.735724   -0.124222    0.513253
  C      2.158010    0.039762    0.638354
  C      2.896091   -0.761406   -0.423152
  H     -3.662834   -1.853825    0.984002
  H     -3.895069   -0.125414    0.721891
  H     -3.636214   -1.198935   -0.653240
  H     -1.325296   -1.687196    0.165400
  H     -1.582494   -0.613853    1.536553
  H     -1.914384    1.309953   -0.034658
  H     -1.661197    0.243336   -1.401829
  H      2.396361    1.104313    0.552423
  H      2.389047   -0.321952    1.640744
  H      3.965583   -0.667206   -0.265944
  H      2.615101   -1.809398   -0.364371
  H      2.650156   -0.382668   -1.412793

 Total Charge           Charge          ....    0
 Multiplicity           Mult            ....    1
 Number of Electrons    NEL             ....   64
 Basis Dimension        Dim             ....  222

ORBITAL ENERGIES
----------------

  NO   OCC          E(Eh)            E(eV)
   0   2.0000     -19.003024      -517.0986
   1   2.0000     -18.940201      -515.3891
   2   2.0000     -10.162275      -276.5296
   3   2.0000     -10.083513      -274.3863
   4   2.0000     -10.035764      -273.0870
   5   2.0000     -10.023227      -272.7459
   6   2.0000     -10.018467      -272.6164
   7   2.0000     -10.010043      -272.3871
   8   2.0000      -1.079012       -29.3614
   9   2.0000      -0.986623       -26.8474
  10   2.0000      -0.768900       -20.9228
  11   2.0000      -0.730538       -19.8790
  12   2.0000      -0.673425       -18.3248
  13   2.0000      -0.616502       -16.7759
  14   2.0000      -0.562642       -15.3103
  15   2.0000      -0.520970       -14.1763
  16   2.0000      -0.472304       -12.8520
  17   2.0000      -0.458555       -12.4779
  18   2.0000      -0.447533       -12.1780
  19   2.0000      -0.416624       -11.3369
  20   2.0000      -0.408149       -11.1063
  21   2.0000      -0.376735       -10.2515
  22   2.0000      -0.372256       -10.1296
  23   2.0000      -0.359868        -9.7925
  24   2.0000      -0.337841        -9.1931
  25   2.0000      -0.334598        -9.1049
  26   2.0000      -0.328973        -8.9518
  27   2.0000      -0.311751        -8.4832
  28   2.0000      -0.300376        -8.1736
  29   2.0000      -0.297468        -8.0945
  30   2.0000      -0.276122        -7.5137
  31   2.0000      -0.247291        -6.7291
  32   0.0000      -0.020084        -0.5465
  33   0.0000       0.076947         2.0938
  34   0.0000       0.098348         2.6762
  35   0.0000       0.114972         3.1286
  36   0.0000       0.130169         3.5421

MULLIKEN ATOMIC CHARGES
-----------------------
   0 C :   -0.511047
   1 C :   -0.250511
   2 C :   -0.341807
   3 C :    0.401763
   4 O :   -0.509906
   5 O :   -0.163771
   6 C :   -0.148449
   7 C :   -0.491634
   8 H :    0.159190
   9 H :    0.155769
  10 H :    0.155704
  11 H :    0.156453
  12 H :    0.156436
  13 H :    0.191164
  14 H :    0.189613
  15 H :    0.171905
  16 H :    0.174262
  17 H :    0.170323
  18 H :    0.166054
  19 H :    0.168488
Sum of atomic charges:   -0.0000000

LOEWDIN ATOMIC CHARGES
----------------------
   0 C :   -0.428050
   1 C :   -0.296890
   2 C :   -0.226712
   3 C :    0.374287
   4 O :   -0.504157
   5 O :   -0.604706
   6 C :    0.034693
   7 C :   -0.392605
   8 H :    0.154602
   9 H :    0.154259
  10 H :    0.154243
  11 H :    0.162125
  12 H :    0.162604
  13 H :    0.193099
  14 H :    0.192081
  15 H :    0.190068
  16 H :    0.188937
  17 H :    0.167898
  18 H :    0.161882
  19 H :    0.162343

  Mayer bond orders larger than 0.100000
B(  0-C ,  1-C ) :   0.8840 B(  0-C ,  8-H ) :   0.9719 B(  0-C ,  9-H ) :   0.9806
B(  0-C , 10-H ) :   0.9801 B(  1-C ,  2-C ) :   0.9210 B(  1-C , 11-H ) :   0.9661
B(  1-C , 12-H ) :   0.9665 B(  2-C ,  3-C ) :   1.0242 B(  2-C , 13-H ) :   0.9348
B(  2-C , 14-H ) :   0.9385 B(  3-C ,  4-O ) :   1.7854 B(  3-C ,  5-O ) :   1.1087
B(  5-O ,  6-C ) :   0.7871 B(  6-C ,  7-C ) :   0.9331 B(  6-C , 15-H ) :   0.9627
B(  6-C , 16-H ) :   0.9529 B(  7-C , 17-H ) :   0.9597 B(  7-C , 18-H ) :   0.9704
B(  7-C , 19-H ) :   0.9699

Dispersion correction           -0.005001647
FINAL SINGLE POINT ENERGY      -386.240220872335

DIPOLE MOMENT
-------------

Method             : SCF
Type of density    : Electron Density
Multiplicity       :   1
Irrep              :   0
Energy             :  -386.2469753772307399 Eh
Relativity type    :
Basis              : AO
                                X                 Y                 Z
Electronic contribution:      3.359283460       4.638651826      -0.678426664
Nuclear contribution   :     -3.414965294      -5.610104069       1.371163420
                        -----------------------------------------
Total Dipole Moment    :     -0.055681834      -0.971452243       0.692736756
                        -----------------------------------------
Magnitude (a.u.)       :      1.194447211
Magnitude (Debye)      :      3.036043533

Rotational constants in cm-1:             0.134049             0.033838             0.029359
Rotational constants in MHz :          4018.693775          1014.447042           880.157538

                             ****ORCA TERMINATED NORMALLY****
TOTAL RUN TIME: 0 days 0 hours 0 minutes 35 seconds 570 msec
