                         Program Version 6.0.0  -   RELEASE  -
|  1> ! pbe def2-sv(p) def2/J RI DEFGRID1 loosescf d4 GCP(DFT/SV(P)) printgap
|  2> %output
|  3>     printlevel normal
|  4> end
|  5> * xyz 0 1
|  6> C -2.7342800761 -0.2812328206 -0.8095305418
|  7> C -1.8845917949 -0.7961926312 0.3471480608
|  8> C -1.2554844784 0.3229621234 1.1784870871
|  9> C -0.3145124795 1.22760578 0.3709735054
| 10> C 0.7808437826 0.4282076718 -0.2845795971
| 11> O 0.9298302628 0.3097601237 -1.4837094814
| 12> O 1.575390654 -0.1356943376 0.616613009
| 13> C 2.6665253822 -0.947031913 0.1740510069
| 14> H -2.1107561074 0.1876341298 -1.5669304774
| 15> H -3.2677692483 -1.1043809175 -1.2782861314
| 16> H -3.462650805 0.4439727363 -0.4547446705
| 17> H -2.5081761064 -1.4023395666 1.0075716787
| 18> H -1.0975711153 -1.4428979037 -0.0493365762
| 19> H -0.6914213141 -0.1208374899 2.0003829642
| 20> H -2.0458288044 0.9444684097 1.6016087082
| 21> H 0.1493657691 1.94717481 1.0461212893
| 22> H -0.8591939988 1.7610610667 -0.4061407151
| 23> H 2.4610357005 -1.9788237391 0.4557855171
| 24> H 3.5607107275 -0.5884005993 0.6790287705
| 25> H 2.7744489005 -0.8653670839 -0.9081757459
| 26> *
| 27>
| 28>                          ****END OF INPUT****

CARTESIAN COORDINATES (ANGSTROEM)
---------------------------------
  C     -2.734280   -0.281233   -0.809531
  C     -1.884592   -0.796193    0.347148
  C     -1.255484    0.322962    1.178487
  C     -0.314512    1.227606    0.370974
  C      0.780844    0.428208   -0.284580
  O      0.929830    0.309760   -1.483709
  O      1.575391   -0.135694    0.616613
  C      2.666525   -0.947032    0.174051
  H     -2.110756    0.187634   -1.566930
  H     -3.267769   -1.104381   -1.278286
  H     -3.462651    0.443973   -0.454745
  H     -2.508176   -1.402340    1.007572
  H     -1.097571   -1.442898   -0.049337
  H     -0.691421   -0.120837    2.000383
  H     -2.045829    0.944468    1.601609
  H      0.149366    1.947175    1.046121
  H     -0.859194    1.761061   -0.406141
  H      2.461036   -1.978824    0.455786
  H      3.560711   -0.588401    0.679029
  H      2.774449   -0.865367   -0.908176

 Total Charge           Charge          ....    0
 Multiplicity           Mult            ....    1
 Number of Electrons    NEL             ....   64
 Basis Dimension        Dim             ....  136

ORBITAL ENERGIES
----------------

  NO   OCC          E(Eh)            E(eV)
   0   2.0000     -18.800152      -511.5782
   1   2.0000     -18.731922      -509.7215
   2   2.0000     -10.005866      -272.2734
   3   2.0000      -9.940792      -270.5027
   4   2.0000      -9.896050      -269.2852
   5   2.0000      -9.892138      -269.1788
   6   2.0000      -9.885574      -269.0001
   7   2.0000      -9.872102      -268.6335
   8   2.0000      -1.005378       -27.3577
   9   2.0000      -0.908765       -24.7287
  10   2.0000      -0.733563       -19.9613
  11   2.0000      -0.682669       -18.5764
  12   2.0000      -0.642636       -17.4870
  13   2.0000      -0.585799       -15.9404
  14   2.0000      -0.522139       -14.2081
  15   2.0000      -0.501427       -13.6445
  16   2.0000      -0.448250       -12.1975
  17   2.0000      -0.437046       -11.8926
  18   2.0000      -0.419542       -11.4163
  19   2.0000      -0.409513       -11.1434
  20   2.0000      -0.399019       -10.8579
  21   2.0000      -0.370162       -10.0726
  22   2.0000      -0.361880        -9.8472
  23   2.0000      -0.348601        -9.4859
  24   2.0000      -0.340598        -9.2681
  25   2.0000      -0.326164        -8.8754
  26   2.0000      -0.299915        -8.1611
  27   2.0000      -0.291803        -7.9404
  28   2.0000      -0.286608        -7.7990
  29   2.0000      -0.285345        -7.7646
  30   2.0000      -0.255793        -6.9605
  31   2.0000      -0.216773        -5.8987
  32   0.0000      -0.019437        -0.5289
  33   0.0000       0.036480         0.9927
  34   0.0000       0.054327         1.4783
  35   0.0000       0.074841         2.0365
  36   0.0000       0.079525         2.1640

MULLIKEN ATOMIC CHARGES
-----------------------
   0 C :   -0.296472
   1 C :   -0.188896
   2 C :   -0.190704
   3 C :   -0.116578
   4 C :    0.082604
   5 O :   -0.201431
   6 O :   -0.246048
   7 C :   -0.130432
   8 H :    0.121740
   9 H :    0.103526
  10 H :    0.095635
  11 H :    0.087914
  12 H :    0.102654
  13 H :    0.097267
  14 H :    0.090186
  15 H :    0.106829
  16 H :    0.105160
  17 H :    0.121032
  18 H :    0.122342
  19 H :    0.133672
Sum of atomic charges:   -0.0000000

LOEWDIN ATOMIC CHARGES
----------------------
   0 C :   -0.345322
   1 C :   -0.237739
   2 C :   -0.221699
   3 C :   -0.244131
   4 C :    0.034958
   5 O :   -0.168661
   6 O :   -0.074890
   7 C :   -0.209242
   8 H :    0.122796
   9 H :    0.121003
  10 H :    0.115410
  11 H :    0.117291
  12 H :    0.117008
  13 H :    0.119883
  14 H :    0.118056
  15 H :    0.138288
  16 H :    0.132956
  17 H :    0.119317
  18 H :    0.120470
  19 H :    0.124248

  Mayer bond orders larger than 0.100000
B(  0-C ,  1-C ) :   1.1536 B(  0-C ,  8-H ) :   0.9453 B(  0-C ,  9-H ) :   0.9510
B(  0-C , 10-H ) :   0.9555 B(  1-C ,  2-C ) :   1.1344 B(  1-C , 11-H ) :   0.9253
B(  1-C , 12-H ) :   0.9136 B(  2-C ,  3-C ) :   1.1083 B(  2-C , 13-H ) :   0.9199
B(  2-C , 14-H ) :   0.9216 B(  3-C ,  4-C ) :   1.0271 B(  3-C , 15-H ) :   0.8950
B(  3-C , 16-H ) :   0.9055 B(  4-C ,  5-O ) :   2.0660 B(  4-C ,  6-O ) :   1.1905
B(  6-O ,  7-C ) :   0.9386 B(  7-C , 17-H ) :   0.9597 B(  7-C , 18-H ) :   0.9614
B(  7-C , 19-H ) :   0.9290

Dispersion correction           -0.015935199
FINAL SINGLE POINT ENERGY      -385.451486057433

DIPOLE MOMENT
-------------

Method             : SCF
Type of density    : Electron Density
Multiplicity       :   1
Irrep              :   0
Energy             :  -385.5264523165335504 Eh
Relativity type    :
Basis              : AO
                                X                 Y                 Z
Electronic contribution:      6.774046306       1.879143632      -1.268398793
Nuclear contribution   :     -6.621777767      -2.078963291       1.982514863
                        -----------------------------------------
Total Dipole Moment    :      0.152268539      -0.199819659       0.714116070
                        -----------------------------------------
Magnitude (a.u.)       :      0.757017414
Magnitude (Debye)      :      1.924185350

Rotational constants in cm-1:             0.115732             0.039480             0.037337
Rotational constants in MHz :          3469.570929          1183.594852          1119.337887

                             ****ORCA TERMINATED NORMALLY****
TOTAL RUN TIME: 0 days 0 hours 0 minutes 10 seconds 951 msec
