                         Program Version 6.0.0  -   RELEASE  -
|  1> ! pbe def2-sv(p) def2/J RI DEFGRID1 loosescf d4 GCP(DFT/SV(P)) printgap
|  2> %output
|  3>     printlevel normal
|  4> end
|  5> * xyz 0 1
|  6> C -2.7272148074 -0.79410952 0.3756586397
|  7> C -1.8847669925 -0.3147665447 -0.801440354
|  8> C -1.2667594544 1.0664237845 -0.5785395308
|  9> C -0.3190710668 1.1223037199 0.6272068462
| 10> C 0.7889840629 0.1111573723 0.4996206862
| 11> O 0.9805733377 -0.8143179902 1.2613384071
| 12> O 1.5533272525 0.3453156063 -0.5615486927
| 13> C 2.6379390252 -0.5516389318 -0.8061378276
| 14> H -2.1007493494 -1.0024933552 1.2396138363
| 15> H -3.4639541011 -0.0423849967 0.6485105763
| 16> H -3.250717731 -1.7101679872 0.1134930948
| 17> H -1.091760019 -1.0422987708 -0.993006664
| 18> H -2.5113992994 -0.2678969844 -1.6944726699
| 19> H -2.0627199398 1.7955517803 -0.4213770075
| 20> H -0.7103724279 1.3530370772 -1.4722635353
| 21> H -0.8543553231 0.9265343382 1.5548157101
| 22> H 0.1334763145 2.1133103186 0.6752980424
| 23> H 3.3656445811 -0.4853999584 0.0035806816
| 24> H 3.0738043943 -0.2352741246 -1.7484474055
| 25> H 2.2702667789 -1.5768549596 -0.8674642006
| 26> *
| 27>
| 28>                          ****END OF INPUT****

CARTESIAN COORDINATES (ANGSTROEM)
---------------------------------
  C     -2.727215   -0.794110    0.375659
  C     -1.884767   -0.314767   -0.801440
  C     -1.266759    1.066424   -0.578540
  C     -0.319071    1.122304    0.627207
  C      0.788984    0.111157    0.499621
  O      0.980573   -0.814318    1.261338
  O      1.553327    0.345316   -0.561549
  C      2.637939   -0.551639   -0.806138
  H     -2.100749   -1.002493    1.239614
  H     -3.463954   -0.042385    0.648511
  H     -3.250718   -1.710168    0.113493
  H     -1.091760   -1.042299   -0.993007
  H     -2.511399   -0.267897   -1.694473
  H     -2.062720    1.795552   -0.421377
  H     -0.710372    1.353037   -1.472264
  H     -0.854355    0.926534    1.554816
  H      0.133476    2.113310    0.675298
  H      3.365645   -0.485400    0.003581
  H      3.073804   -0.235274   -1.748447
  H      2.270267   -1.576855   -0.867464

 Total Charge           Charge          ....    0
 Multiplicity           Mult            ....    1
 Number of Electrons    NEL             ....   64
 Basis Dimension        Dim             ....  136

ORBITAL ENERGIES
----------------

  NO   OCC          E(Eh)            E(eV)
   0   2.0000     -18.800204      -511.5796
   1   2.0000     -18.732049      -509.7250
   2   2.0000     -10.004579      -272.2384
   3   2.0000      -9.942678      -270.5540
   4   2.0000      -9.896269      -269.2912
   5   2.0000      -9.892012      -269.1753
   6   2.0000      -9.885794      -269.0061
   7   2.0000      -9.872567      -268.6462
   8   2.0000      -1.006224       -27.3807
   9   2.0000      -0.908123       -24.7113
  10   2.0000      -0.733716       -19.9654
  11   2.0000      -0.682219       -18.5641
  12   2.0000      -0.642494       -17.4832
  13   2.0000      -0.586183       -15.9509
  14   2.0000      -0.522641       -14.2218
  15   2.0000      -0.501899       -13.6574
  16   2.0000      -0.448266       -12.1979
  17   2.0000      -0.437779       -11.9126
  18   2.0000      -0.419036       -11.4025
  19   2.0000      -0.408658       -11.1201
  20   2.0000      -0.399207       -10.8630
  21   2.0000      -0.371011       -10.0957
  22   2.0000      -0.359192        -9.7741
  23   2.0000      -0.349241        -9.5033
  24   2.0000      -0.340735        -9.2719
  25   2.0000      -0.325479        -8.8567
  26   2.0000      -0.304112        -8.2753
  27   2.0000      -0.292156        -7.9500
  28   2.0000      -0.286744        -7.8027
  29   2.0000      -0.285383        -7.7657
  30   2.0000      -0.258395        -7.0313
  31   2.0000      -0.214832        -5.8459
  32   0.0000      -0.020305        -0.5525
  33   0.0000       0.035680         0.9709
  34   0.0000       0.053831         1.4648
  35   0.0000       0.074245         2.0203
  36   0.0000       0.077034         2.0962

MULLIKEN ATOMIC CHARGES
-----------------------
   0 C :   -0.296290
   1 C :   -0.189261
   2 C :   -0.189823
   3 C :   -0.114978
   4 C :    0.081024
   5 O :   -0.208575
   6 O :   -0.243817
   7 C :   -0.108895
   8 H :    0.121087
   9 H :    0.096012
  10 H :    0.103757
  11 H :    0.102806
  12 H :    0.088021
  13 H :    0.089823
  14 H :    0.097917
  15 H :    0.105155
  16 H :    0.107263
  17 H :    0.119003
  18 H :    0.120585
  19 H :    0.119185
Sum of atomic charges:   -0.0000000

LOEWDIN ATOMIC CHARGES
----------------------
   0 C :   -0.345154
   1 C :   -0.237633
   2 C :   -0.222219
   3 C :   -0.244645
   4 C :    0.033208
   5 O :   -0.167207
   6 O :   -0.075297
   7 C :   -0.203243
   8 H :    0.122558
   9 H :    0.115614
  10 H :    0.121063
  11 H :    0.116927
  12 H :    0.117443
  13 H :    0.117870
  14 H :    0.120111
  15 H :    0.133171
  16 H :    0.138875
  17 H :    0.119399
  18 H :    0.120077
  19 H :    0.119085

  Mayer bond orders larger than 0.100000
B(  0-C ,  1-C ) :   1.1533 B(  0-C ,  8-H ) :   0.9458 B(  0-C ,  9-H ) :   0.9554
B(  0-C , 10-H ) :   0.9510 B(  1-C ,  2-C ) :   1.1336 B(  1-C , 11-H ) :   0.9142
B(  1-C , 12-H ) :   0.9252 B(  2-C ,  3-C ) :   1.1073 B(  2-C , 13-H ) :   0.9214
B(  2-C , 14-H ) :   0.9195 B(  3-C ,  4-C ) :   1.0375 B(  3-C , 15-H ) :   0.9048
B(  3-C , 16-H ) :   0.8941 B(  4-C ,  5-O ) :   2.0559 B(  4-C ,  6-O ) :   1.1918
B(  6-O ,  7-C ) :   0.9429 B(  7-C , 17-H ) :   0.9547 B(  7-C , 18-H ) :   0.9588
B(  7-C , 19-H ) :   0.9492

Dispersion correction           -0.015963897
FINAL SINGLE POINT ENERGY      -385.452555858874

DIPOLE MOMENT
-------------

Method             : SCF
Type of density    : Electron Density
Multiplicity       :   1
Irrep              :   0
Energy             :  -385.5273015603559088 Eh
Relativity type    :
Basis              : AO
                                X                 Y                 Z
Electronic contribution:      6.836983245       0.532749365       2.128524423
Nuclear contribution   :     -6.719887886      -0.170512198      -2.768210046
                        -----------------------------------------
Total Dipole Moment    :      0.117095359       0.362237167      -0.639685624
                        -----------------------------------------
Magnitude (a.u.)       :      0.744395584
Magnitude (Debye)      :      1.892103207

Rotational constants in cm-1:             0.115376             0.039555             0.037539
Rotational constants in MHz :          3458.882586          1185.828496          1125.387824

                             ****ORCA TERMINATED NORMALLY****
TOTAL RUN TIME: 0 days 0 hours 0 minutes 10 seconds 947 msec
