                         Program Version 6.0.0  -   RELEASE  -
|  1> ! pbe def2-sv(p) def2/J RI DEFGRID1 loosescf d4 GCP(DFT/SV(P)) printgap
|  2> %output
|  3>     printlevel normal
|  4> end
|  5> * xyz 0 1
|  6> C -1.8305360842 -1.2657594187 -0.3884214196
|  7> C -2.4370999292 -0.0624184719 0.323072368
|  8> C -1.5873222073 1.2020603721 0.200093841
|  9> C -0.2040580371 1.0609723815 0.8431500905
| 10> C 0.7786918728 0.3724471277 -0.066418068
| 11> O 0.9022971893 0.584699253 -1.2538472449
| 12> O 1.5420028672 -0.493953904 0.5973708855
| 13> C 2.5499502228 -1.1863494927 -0.1432941353
| 14> H -2.5242553226 -2.1029069338 -0.3759531722
| 15> H -1.602090786 -1.0209003523 -1.424098642
| 16> H -0.9108910219 -1.5827686935 0.0981944627
| 17> H -3.4197636281 0.144263343 -0.1053148709
| 18> H -2.5782898278 -0.3009424499 1.3792931512
| 19> H -2.1166824566 2.0255731355 0.6802890554
| 20> H -1.4515320192 1.4533587176 -0.8541720379
| 21> H -0.2525372777 0.518945327 1.7868035861
| 22> H 0.2055872184 2.0554956216 1.033486744
| 23> H 3.0557759867 -1.8239270029 0.5746570543
| 24> H 3.2417441411 -0.4713427873 -0.5898775006
| 25> H 2.0896050395 -1.7767127817 -0.936728075
| 26> *
| 27>
| 28>                          ****END OF INPUT****

CARTESIAN COORDINATES (ANGSTROEM)
---------------------------------
  C     -1.830536   -1.265759   -0.388421
  C     -2.437100   -0.062418    0.323072
  C     -1.587322    1.202060    0.200094
  C     -0.204058    1.060972    0.843150
  C      0.778692    0.372447   -0.066418
  O      0.902297    0.584699   -1.253847
  O      1.542003   -0.493954    0.597371
  C      2.549950   -1.186349   -0.143294
  H     -2.524255   -2.102907   -0.375953
  H     -1.602091   -1.020900   -1.424099
  H     -0.910891   -1.582769    0.098194
  H     -3.419764    0.144263   -0.105315
  H     -2.578290   -0.300942    1.379293
  H     -2.116682    2.025573    0.680289
  H     -1.451532    1.453359   -0.854172
  H     -0.252537    0.518945    1.786804
  H      0.205587    2.055496    1.033487
  H      3.055776   -1.823927    0.574657
  H      3.241744   -0.471343   -0.589878
  H      2.089605   -1.776713   -0.936728

 Total Charge           Charge          ....    0
 Multiplicity           Mult            ....    1
 Number of Electrons    NEL             ....   64
 Basis Dimension        Dim             ....  136

ORBITAL ENERGIES
----------------

  NO   OCC          E(Eh)            E(eV)
   0   2.0000     -18.800494      -511.5875
   1   2.0000     -18.732932      -509.7490
   2   2.0000     -10.005307      -272.2583
   3   2.0000      -9.941882      -270.5324
   4   2.0000      -9.897395      -269.3218
   5   2.0000      -9.886721      -269.0314
   6   2.0000      -9.884193      -268.9626
   7   2.0000      -9.872346      -268.6402
   8   2.0000      -1.005459       -27.3599
   9   2.0000      -0.909600       -24.7515
  10   2.0000      -0.730452       -19.8766
  11   2.0000      -0.682592       -18.5743
  12   2.0000      -0.645115       -17.5545
  13   2.0000      -0.584321       -15.9002
  14   2.0000      -0.519172       -14.1274
  15   2.0000      -0.496644       -13.5144
  16   2.0000      -0.451719       -12.2919
  17   2.0000      -0.443793       -12.0762
  18   2.0000      -0.416777       -11.3411
  19   2.0000      -0.410741       -11.1768
  20   2.0000      -0.394290       -10.7292
  21   2.0000      -0.372339       -10.1318
  22   2.0000      -0.359000        -9.7689
  23   2.0000      -0.351598        -9.5675
  24   2.0000      -0.334717        -9.1081
  25   2.0000      -0.324917        -8.8414
  26   2.0000      -0.306113        -8.3298
  27   2.0000      -0.287995        -7.8367
  28   2.0000      -0.286134        -7.7861
  29   2.0000      -0.280624        -7.6362
  30   2.0000      -0.258578        -7.0363
  31   2.0000      -0.219429        -5.9710
  32   0.0000      -0.020254        -0.5511
  33   0.0000       0.036454         0.9920
  34   0.0000       0.055444         1.5087
  35   0.0000       0.074918         2.0386
  36   0.0000       0.078747         2.1428

MULLIKEN ATOMIC CHARGES
-----------------------
   0 C :   -0.293022
   1 C :   -0.181576
   2 C :   -0.171201
   3 C :   -0.134480
   4 C :    0.079582
   5 O :   -0.207799
   6 O :   -0.239190
   7 C :   -0.110061
   8 H :    0.103172
   9 H :    0.108720
  10 H :    0.112804
  11 H :    0.088792
  12 H :    0.081333
  13 H :    0.083714
  14 H :    0.106608
  15 H :    0.096065
  16 H :    0.116600
  17 H :    0.120973
  18 H :    0.119124
  19 H :    0.119844
Sum of atomic charges:    0.0000000

LOEWDIN ATOMIC CHARGES
----------------------
   0 C :   -0.348932
   1 C :   -0.231894
   2 C :   -0.224028
   3 C :   -0.246638
   4 C :    0.033460
   5 O :   -0.169084
   6 O :   -0.074963
   7 C :   -0.203973
   8 H :    0.119573
   9 H :    0.123155
  10 H :    0.116125
  11 H :    0.117188
  12 H :    0.113038
  13 H :    0.117934
  14 H :    0.124678
  15 H :    0.128579
  16 H :    0.146791
  17 H :    0.120316
  18 H :    0.119361
  19 H :    0.119315

  Mayer bond orders larger than 0.100000
B(  0-C ,  1-C ) :   1.1783 B(  0-C ,  8-H ) :   0.9483 B(  0-C ,  9-H ) :   0.9474
B(  0-C , 10-H ) :   0.9344 B(  1-C ,  2-C ) :   1.1336 B(  1-C , 11-H ) :   0.9248
B(  1-C , 12-H ) :   0.9242 B(  2-C ,  3-C ) :   1.0982 B(  2-C , 13-H ) :   0.9204
B(  2-C , 14-H ) :   0.9129 B(  3-C ,  4-C ) :   1.0397 B(  3-C , 15-H ) :   0.9086
B(  3-C , 16-H ) :   0.8874 B(  4-C ,  5-O ) :   2.0482 B(  4-C ,  6-O ) :   1.1988
B(  6-O ,  7-C ) :   0.9405 B(  7-C , 17-H ) :   0.9592 B(  7-C , 18-H ) :   0.9528
B(  7-C , 19-H ) :   0.9509

Dispersion correction           -0.016156852
FINAL SINGLE POINT ENERGY      -385.452663601964

DIPOLE MOMENT
-------------

Method             : SCF
Type of density    : Electron Density
Multiplicity       :   1
Irrep              :   0
Energy             :  -385.5279699233893211 Eh
Relativity type    :
Basis              : AO
                                X                 Y                 Z
Electronic contribution:      5.987657936       2.417012791      -0.627121241
Nuclear contribution   :     -5.839803097      -2.702324052       1.178528607
                        -----------------------------------------
Total Dipole Moment    :      0.147854839      -0.285311262       0.551407366
                        -----------------------------------------
Magnitude (a.u.)       :      0.638211292
Magnitude (Debye)      :      1.622204184

Rotational constants in cm-1:             0.112321             0.042309             0.037922
Rotational constants in MHz :          3367.300422          1268.386565          1136.858047

                             ****ORCA TERMINATED NORMALLY****
TOTAL RUN TIME: 0 days 0 hours 0 minutes 10 seconds 830 msec
