                         Program Version 6.0.0  -   RELEASE  -
|  1> ! r2scan-3c def2/J RI DEFGRID2 scfconv6 printgap
|  2> %output
|  3>     printlevel normal
|  4> end
|  5> * xyz 0 1
|  6> C -3.3666491619 -1.0549580422 0.2749466844
|  7> C -1.9978697315 -0.4616305974 0.5824178082
|  8> C -1.3265227681 0.0727623841 -0.6918896062
|  9> C 0.0019991256 0.6814314429 -0.3351216528
| 10> O 0.1889068181 1.8589749575 -0.1020853963
| 11> O 0.9575693042 -0.2328639425 -0.2614341857
| 12> C 2.2724755802 0.1971741381 0.1303193062
| 13> C 3.1270667131 -1.0349048223 0.3563340459
| 14> H -4.0215133272 -0.3003360706 -0.1529763363
| 15> H -3.2755684151 -1.875075862 -0.4323318095
| 16> H -3.8237075622 -1.4320721472 1.1856412413
| 17> H -1.3560985357 -1.2237334899 1.0278787383
| 18> H -2.1013057769 0.3559650854 1.2990544825
| 19> H -1.9521985266 0.8410029519 -1.1451605993
| 20> H -1.1670402966 -0.7463377825 -1.3918153592
| 21> H 2.6773186566 0.8297694567 -0.6663418699
| 22> H 2.1826383384 0.8058552521 1.0360869228
| 23> H 2.703618579 -1.6429871005 1.1501578082
| 24> H 3.1714512344 -1.6269063131 -0.5528571394
| 25> H 4.1300386752 -0.7295563548 0.6354500107
| 26> *
| 27>
| 28>                          ****END OF INPUT****

CARTESIAN COORDINATES (ANGSTROEM)
---------------------------------
  C     -3.366649   -1.054958    0.274947
  C     -1.997870   -0.461631    0.582418
  C     -1.326523    0.072762   -0.691890
  C      0.001999    0.681431   -0.335122
  O      0.188907    1.858975   -0.102085
  O      0.957569   -0.232864   -0.261434
  C      2.272476    0.197174    0.130319
  C      3.127067   -1.034905    0.356334
  H     -4.021513   -0.300336   -0.152976
  H     -3.275568   -1.875076   -0.432332
  H     -3.823708   -1.432072    1.185641
  H     -1.356099   -1.223733    1.027879
  H     -2.101306    0.355965    1.299054
  H     -1.952199    0.841003   -1.145161
  H     -1.167040   -0.746338   -1.391815
  H      2.677319    0.829769   -0.666342
  H      2.182638    0.805855    1.036087
  H      2.703619   -1.642987    1.150158
  H      3.171451   -1.626906   -0.552857
  H      4.130039   -0.729556    0.635450

 Total Charge           Charge          ....    0
 Multiplicity           Mult            ....    1
 Number of Electrons    NEL             ....   64
 Basis Dimension        Dim             ....  222

ORBITAL ENERGIES
----------------

  NO   OCC          E(Eh)            E(eV)
   0   2.0000     -18.995643      -516.8977
   1   2.0000     -18.924909      -514.9730
   2   2.0000     -10.148951      -276.1670
   3   2.0000     -10.091116      -274.5932
   4   2.0000     -10.040175      -273.2071
   5   2.0000     -10.038841      -273.1708
   6   2.0000     -10.032177      -272.9894
   7   2.0000     -10.023684      -272.7583
   8   2.0000      -1.070849       -29.1393
   9   2.0000      -0.971911       -26.4471
  10   2.0000      -0.775719       -21.1084
  11   2.0000      -0.743136       -20.2218
  12   2.0000      -0.681212       -18.5367
  13   2.0000      -0.613675       -16.6990
  14   2.0000      -0.568411       -15.4672
  15   2.0000      -0.534122       -14.5342
  16   2.0000      -0.465221       -12.6593
  17   2.0000      -0.460889       -12.5414
  18   2.0000      -0.446275       -12.1438
  19   2.0000      -0.422830       -11.5058
  20   2.0000      -0.406124       -11.0512
  21   2.0000      -0.381697       -10.3865
  22   2.0000      -0.376280       -10.2391
  23   2.0000      -0.367248        -9.9933
  24   2.0000      -0.358918        -9.7667
  25   2.0000      -0.336248        -9.1498
  26   2.0000      -0.330362        -8.9896
  27   2.0000      -0.315433        -8.5834
  28   2.0000      -0.310293        -8.4435
  29   2.0000      -0.306572        -8.3422
  30   2.0000      -0.269678        -7.3383
  31   2.0000      -0.230387        -6.2691
  32   0.0000      -0.013192        -0.3590
  33   0.0000       0.074652         2.0314
  34   0.0000       0.094747         2.5782
  35   0.0000       0.104885         2.8541
  36   0.0000       0.120671         3.2836

MULLIKEN ATOMIC CHARGES
-----------------------
   0 C :   -0.474427
   1 C :   -0.231391
   2 C :   -0.343160
   3 C :    0.408458
   4 O :   -0.424290
   5 O :   -0.170759
   6 C :   -0.148660
   7 C :   -0.442835
   8 H :    0.146821
   9 H :    0.144518
  10 H :    0.150651
  11 H :    0.148397
  12 H :    0.153409
  13 H :    0.162706
  14 H :    0.155165
  15 H :    0.152294
  16 H :    0.161722
  17 H :    0.151763
  18 H :    0.152174
  19 H :    0.147444
Sum of atomic charges:   -0.0000000

LOEWDIN ATOMIC CHARGES
----------------------
   0 C :   -0.419655
   1 C :   -0.287917
   2 C :   -0.230258
   3 C :    0.353134
   4 O :   -0.426703
   5 O :   -0.599545
   6 C :    0.033994
   7 C :   -0.387159
   8 H :    0.151585
   9 H :    0.150653
  10 H :    0.153067
  11 H :    0.158420
  12 H :    0.160433
  13 H :    0.177062
  14 H :    0.175884
  15 H :    0.177237
  16 H :    0.182019
  17 H :    0.158790
  18 H :    0.159373
  19 H :    0.159588

  Mayer bond orders larger than 0.100000
B(  0-C ,  1-C ) :   0.8957 B(  0-C ,  8-H ) :   0.9837 B(  0-C ,  9-H ) :   0.9850
B(  0-C , 10-H ) :   0.9720 B(  1-C ,  2-C ) :   0.9249 B(  1-C , 11-H ) :   0.9624
B(  1-C , 12-H ) :   0.9592 B(  2-C ,  3-C ) :   0.9590 B(  2-C , 13-H ) :   0.9801
B(  2-C , 14-H ) :   0.9815 B(  3-C ,  4-O ) :   1.8248 B(  3-C ,  5-O ) :   1.0473
B(  5-O ,  6-C ) :   0.8092 B(  6-C ,  7-C ) :   0.9398 B(  6-C , 15-H ) :   0.9508
B(  6-C , 16-H ) :   0.9565 B(  7-C , 17-H ) :   0.9737 B(  7-C , 18-H ) :   0.9704
B(  7-C , 19-H ) :   0.9686

Dispersion correction           -0.004868913
FINAL SINGLE POINT ENERGY      -386.235627579500

DIPOLE MOMENT
-------------

Method             : SCF
Type of density    : Electron Density
Multiplicity       :   1
Irrep              :   0
Energy             :  -386.2423330642912447 Eh
Relativity type    :
Basis              : AO
                                X                 Y                 Z
Electronic contribution:      2.805606525       5.414128936      -1.826678217
Nuclear contribution   :     -2.640232218      -6.303270848       1.864175219
                        -----------------------------------------
Total Dipole Moment    :      0.165374306      -0.889141912       0.037497001
                        -----------------------------------------
Magnitude (a.u.)       :      0.905167402
Magnitude (Debye)      :      2.300752692

Rotational constants in cm-1:             0.128088             0.032191             0.027577
Rotational constants in MHz :          3839.993345           965.056426           826.727770

                             ****ORCA TERMINATED NORMALLY****
TOTAL RUN TIME: 0 days 0 hours 0 minutes 30 seconds 497 msec
