                         Program Version 6.0.0  -   RELEASE  -
|  1> ! r2scan-3c def2/J RI DEFGRID2 scfconv6 printgap
|  2> %output
|  3>     printlevel normal
|  4> end
|  5> %cpcm
|  6>     smd true
|  7>     smdsolvent "water"
|  8> end
|  9> * xyz 0 1
| 10> C -3.3666491619 -1.0549580422 0.2749466844
| 11> C -1.9978697315 -0.4616305974 0.5824178082
| 12> C -1.3265227681 0.0727623841 -0.6918896062
| 13> C 0.0019991256 0.6814314429 -0.3351216528
| 14> O 0.1889068181 1.8589749575 -0.1020853963
| 15> O 0.9575693042 -0.2328639425 -0.2614341857
| 16> C 2.2724755802 0.1971741381 0.1303193062
| 17> C 3.1270667131 -1.0349048223 0.3563340459
| 18> H -4.0215133272 -0.3003360706 -0.1529763363
| 19> H -3.2755684151 -1.875075862 -0.4323318095
| 20> H -3.8237075622 -1.4320721472 1.1856412413
| 21> H -1.3560985357 -1.2237334899 1.0278787383
| 22> H -2.1013057769 0.3559650854 1.2990544825
| 23> H -1.9521985266 0.8410029519 -1.1451605993
| 24> H -1.1670402966 -0.7463377825 -1.3918153592
| 25> H 2.6773186566 0.8297694567 -0.6663418699
| 26> H 2.1826383384 0.8058552521 1.0360869228
| 27> H 2.703618579 -1.6429871005 1.1501578082
| 28> H 3.1714512344 -1.6269063131 -0.5528571394
| 29> H 4.1300386752 -0.7295563548 0.6354500107
| 30> *
| 31>
| 32>                          ****END OF INPUT****

CARTESIAN COORDINATES (ANGSTROEM)
---------------------------------
  C     -3.366649   -1.054958    0.274947
  C     -1.997870   -0.461631    0.582418
  C     -1.326523    0.072762   -0.691890
  C      0.001999    0.681431   -0.335122
  O      0.188907    1.858975   -0.102085
  O      0.957569   -0.232864   -0.261434
  C      2.272476    0.197174    0.130319
  C      3.127067   -1.034905    0.356334
  H     -4.021513   -0.300336   -0.152976
  H     -3.275568   -1.875076   -0.432332
  H     -3.823708   -1.432072    1.185641
  H     -1.356099   -1.223733    1.027879
  H     -2.101306    0.355965    1.299054
  H     -1.952199    0.841003   -1.145161
  H     -1.167040   -0.746338   -1.391815
  H      2.677319    0.829769   -0.666342
  H      2.182638    0.805855    1.036087
  H      2.703619   -1.642987    1.150158
  H      3.171451   -1.626906   -0.552857
  H      4.130039   -0.729556    0.635450

 Total Charge           Charge          ....    0
 Multiplicity           Mult            ....    1
 Number of Electrons    NEL             ....   64
 Basis Dimension        Dim             ....  222

ORBITAL ENERGIES
----------------

  NO   OCC          E(Eh)            E(eV)
   0   2.0000     -19.002345      -517.0801
   1   2.0000     -18.942918      -515.4630
   2   2.0000     -10.161223      -276.5009
   3   2.0000     -10.083961      -274.3985
   4   2.0000     -10.034890      -273.0632
   5   2.0000     -10.030356      -272.9399
   6   2.0000     -10.018837      -272.6264
   7   2.0000     -10.011951      -272.4390
   8   2.0000      -1.079427       -29.3727
   9   2.0000      -0.987628       -26.8747
  10   2.0000      -0.770391       -20.9634
  11   2.0000      -0.735052       -20.0018
  12   2.0000      -0.674103       -18.3433
  13   2.0000      -0.606960       -16.5162
  14   2.0000      -0.560353       -15.2480
  15   2.0000      -0.533168       -14.5082
  16   2.0000      -0.468778       -12.7561
  17   2.0000      -0.459277       -12.4976
  18   2.0000      -0.449248       -12.2246
  19   2.0000      -0.425605       -11.5813
  20   2.0000      -0.401921       -10.9368
  21   2.0000      -0.378375       -10.2961
  22   2.0000      -0.364627        -9.9220
  23   2.0000      -0.363085        -9.8801
  24   2.0000      -0.350063        -9.5257
  25   2.0000      -0.329618        -8.9693
  26   2.0000      -0.326326        -8.8798
  27   2.0000      -0.313750        -8.5376
  28   2.0000      -0.304378        -8.2826
  29   2.0000      -0.300604        -8.1798
  30   2.0000      -0.276295        -7.5184
  31   2.0000      -0.248304        -6.7567
  32   0.0000      -0.022864        -0.6222
  33   0.0000       0.077554         2.1103
  34   0.0000       0.104228         2.8362
  35   0.0000       0.115606         3.1458
  36   0.0000       0.127415         3.4671

MULLIKEN ATOMIC CHARGES
-----------------------
   0 C :   -0.518470
   1 C :   -0.217703
   2 C :   -0.369120
   3 C :    0.454671
   4 O :   -0.513270
   5 O :   -0.185620
   6 C :   -0.151488
   7 C :   -0.491223
   8 H :    0.159274
   9 H :    0.158940
  10 H :    0.162362
  11 H :    0.157762
  12 H :    0.157375
  13 H :    0.176357
  14 H :    0.177832
  15 H :    0.172145
  16 H :    0.170861
  17 H :    0.165590
  18 H :    0.164667
  19 H :    0.169056
Sum of atomic charges:   -0.0000000

LOEWDIN ATOMIC CHARGES
----------------------
   0 C :   -0.424856
   1 C :   -0.285252
   2 C :   -0.228248
   3 C :    0.362645
   4 O :   -0.490656
   5 O :   -0.599928
   6 C :    0.036310
   7 C :   -0.389942
   8 H :    0.154856
   9 H :    0.154879
  10 H :    0.156397
  11 H :    0.161716
  12 H :    0.161411
  13 H :    0.182142
  14 H :    0.185718
  15 H :    0.183740
  16 H :    0.185559
  17 H :    0.162432
  18 H :    0.162773
  19 H :    0.168305

  Mayer bond orders larger than 0.100000
B(  0-C ,  1-C ) :   0.8876 B(  0-C ,  8-H ) :   0.9814 B(  0-C ,  9-H ) :   0.9821
B(  0-C , 10-H ) :   0.9687 B(  1-C ,  2-C ) :   0.9151 B(  1-C , 11-H ) :   0.9592
B(  1-C , 12-H ) :   0.9584 B(  2-C ,  3-C ) :   0.9544 B(  2-C , 13-H ) :   0.9795
B(  2-C , 14-H ) :   0.9697 B(  3-C ,  4-O ) :   1.7513 B(  3-C ,  5-O ) :   1.0773
B(  5-O ,  6-C ) :   0.7954 B(  6-C ,  7-C ) :   0.9420 B(  6-C , 15-H ) :   0.9421
B(  6-C , 16-H ) :   0.9499 B(  7-C , 17-H ) :   0.9718 B(  7-C , 18-H ) :   0.9679
B(  7-C , 19-H ) :   0.9621

Dispersion correction           -0.004868913
FINAL SINGLE POINT ENERGY      -386.241381157876

DIPOLE MOMENT
-------------

Method             : SCF
Type of density    : Electron Density
Multiplicity       :   1
Irrep              :   0
Energy             :  -386.2480866426664647 Eh
Relativity type    :
Basis              : AO
                                X                 Y                 Z
Electronic contribution:      2.848463719       5.072191759      -1.851375930
Nuclear contribution   :     -2.640232218      -6.303270848       1.864175219
                        -----------------------------------------
Total Dipole Moment    :      0.208231501      -1.231079088       0.012799289
                        -----------------------------------------
Magnitude (a.u.)       :      1.248631211
Magnitude (Debye)      :      3.173768315

Rotational constants in cm-1:             0.128088             0.032191             0.027577
Rotational constants in MHz :          3839.993345           965.056426           826.727770

                             ****ORCA TERMINATED NORMALLY****
TOTAL RUN TIME: 0 days 0 hours 0 minutes 36 seconds 795 msec
