                         Program Version 6.0.0  -   RELEASE  -
|  1> ! pbe def2-sv(p) def2/J RI DEFGRID1 loosescf d4 GCP(DFT/SV(P)) printgap
|  2> %output
|  3>     printlevel normal
|  4> end
|  5> * xyz 0 1
|  6> C -2.3248382961 -1.250240394 0.7025234343
|  7> C -2.5247830815 0.045639917 -0.0739078529
|  8> C -1.3248866942 0.3539123555 -0.9760472707
|  9> C -0.1006885778 0.6553168083 -0.1505743195
| 10> O -0.0348454866 1.5090666602 0.710690586
| 11> O 0.9157570015 -0.1323421904 -0.4707753314
| 12> C 2.155374159 0.0390723425 0.2370877767
| 13> C 3.047716463 -1.1469418692 -0.0740751629
| 14> H -3.1974054439 -1.4638847036 1.3139573584
| 15> H -2.1655017396 -2.0829871842 0.0217743316
| 16> H -1.4594654701 -1.1707280381 1.3579499671
| 17> H -2.65888827 0.8751555506 0.6230132498
| 18> H -3.4188500481 -0.0317699679 -0.6929442643
| 19> H -1.5413625045 1.2392340949 -1.5760791317
| 20> H -1.1033631234 -0.4857083542 -1.6335634552
| 21> H 2.6077749637 0.9812580231 -0.0889188758
| 22> H 1.9359011289 0.1178879654 1.3070859587
| 23> H 2.5734661556 -2.0673601709 0.2536330596
| 24> H 3.2252302946 -1.2060249631 -1.1436914137
| 25> H 3.9950127282 -1.0286556966 0.4414378871
| 26> *
| 27>
| 28>                          ****END OF INPUT****

CARTESIAN COORDINATES (ANGSTROEM)
---------------------------------
  C     -2.324838   -1.250240    0.702523
  C     -2.524783    0.045640   -0.073908
  C     -1.324887    0.353912   -0.976047
  C     -0.100689    0.655317   -0.150574
  O     -0.034845    1.509067    0.710691
  O      0.915757   -0.132342   -0.470775
  C      2.155374    0.039072    0.237088
  C      3.047716   -1.146942   -0.074075
  H     -3.197405   -1.463885    1.313957
  H     -2.165502   -2.082987    0.021774
  H     -1.459465   -1.170728    1.357950
  H     -2.658888    0.875156    0.623013
  H     -3.418850   -0.031770   -0.692944
  H     -1.541363    1.239234   -1.576079
  H     -1.103363   -0.485708   -1.633563
  H      2.607775    0.981258   -0.088919
  H      1.935901    0.117888    1.307086
  H      2.573466   -2.067360    0.253633
  H      3.225230   -1.206025   -1.143691
  H      3.995013   -1.028656    0.441438

 Total Charge           Charge          ....    0
 Multiplicity           Mult            ....    1
 Number of Electrons    NEL             ....   64
 Basis Dimension        Dim             ....  136

ORBITAL ENERGIES
----------------

  NO   OCC          E(Eh)            E(eV)
   0   2.0000     -18.797966      -511.5187
   1   2.0000     -18.729607      -509.6585
   2   2.0000     -10.003268      -272.2028
   3   2.0000      -9.946743      -270.6646
   4   2.0000      -9.895585      -269.2726
   5   2.0000      -9.890953      -269.1465
   6   2.0000      -9.889660      -269.1113
   7   2.0000      -9.877211      -268.7726
   8   2.0000      -1.004267       -27.3275
   9   2.0000      -0.906637       -24.6708
  10   2.0000      -0.727703       -19.8018
  11   2.0000      -0.700055       -19.0495
  12   2.0000      -0.636435       -17.3183
  13   2.0000      -0.583919       -15.8893
  14   2.0000      -0.531181       -14.4542
  15   2.0000      -0.502969       -13.6865
  16   2.0000      -0.448789       -12.2122
  17   2.0000      -0.444612       -12.0985
  18   2.0000      -0.415425       -11.3043
  19   2.0000      -0.402127       -10.9424
  20   2.0000      -0.387514       -10.5448
  21   2.0000      -0.364713        -9.9243
  22   2.0000      -0.362852        -9.8737
  23   2.0000      -0.352271        -9.5858
  24   2.0000      -0.346052        -9.4165
  25   2.0000      -0.322768        -8.7830
  26   2.0000      -0.308849        -8.4042
  27   2.0000      -0.297590        -8.0978
  28   2.0000      -0.296070        -8.0565
  29   2.0000      -0.290850        -7.9144
  30   2.0000      -0.255876        -6.9627
  31   2.0000      -0.215621        -5.8674
  32   0.0000      -0.019320        -0.5257
  33   0.0000       0.035559         0.9676
  34   0.0000       0.053003         1.4423
  35   0.0000       0.075721         2.0605
  36   0.0000       0.078016         2.1229

MULLIKEN ATOMIC CHARGES
-----------------------
   0 C :   -0.288615
   1 C :   -0.202696
   2 C :   -0.118522
   3 C :    0.088207
   4 O :   -0.215544
   5 O :   -0.236586
   6 C :   -0.030898
   7 C :   -0.273223
   8 H :    0.107895
   9 H :    0.098965
  10 H :    0.115463
  11 H :    0.108833
  12 H :    0.091830
  13 H :    0.112255
  14 H :    0.091760
  15 H :    0.103610
  16 H :    0.107826
  17 H :    0.114335
  18 H :    0.114267
  19 H :    0.110836
Sum of atomic charges:   -0.0000000

LOEWDIN ATOMIC CHARGES
----------------------
   0 C :   -0.342475
   1 C :   -0.227048
   2 C :   -0.246742
   3 C :    0.034119
   4 O :   -0.173751
   5 O :   -0.068337
   6 C :   -0.109677
   7 C :   -0.350647
   8 H :    0.121672
   9 H :    0.117348
  10 H :    0.120051
  11 H :    0.124834
  12 H :    0.117929
  13 H :    0.141689
  14 H :    0.125925
  15 H :    0.115910
  16 H :    0.116654
  17 H :    0.126214
  18 H :    0.126282
  19 H :    0.130050

  Mayer bond orders larger than 0.100000
B(  0-C ,  1-C ) :   1.1545 B(  0-C ,  8-H ) :   0.9520 B(  0-C ,  9-H ) :   0.9538
B(  0-C , 10-H ) :   0.9491 B(  1-C ,  2-C ) :   1.1120 B(  1-C , 11-H ) :   0.9199
B(  1-C , 12-H ) :   0.9284 B(  2-C ,  3-C ) :   1.0239 B(  2-C , 13-H ) :   0.8934
B(  2-C , 14-H ) :   0.9106 B(  3-C ,  4-O ) :   2.0419 B(  3-C ,  5-O ) :   1.2168
B(  5-O ,  6-C ) :   0.9122 B(  6-C ,  7-C ) :   1.1513 B(  6-C , 15-H ) :   0.9351
B(  6-C , 16-H ) :   0.9257 B(  7-C , 17-H ) :   0.9514 B(  7-C , 18-H ) :   0.9489
B(  7-C , 19-H ) :   0.9447

Dispersion correction           -0.014909048
FINAL SINGLE POINT ENERGY      -385.458304250102

DIPOLE MOMENT
-------------

Method             : SCF
Type of density    : Electron Density
Multiplicity       :   1
Irrep              :   0
Energy             :  -385.5332337758646872 Eh
Relativity type    :
Basis              : AO
                                X                 Y                 Z
Electronic contribution:      1.384435732       5.339608724      -0.540566448
Nuclear contribution   :     -1.119728324      -5.912161105       0.175856200
                        -----------------------------------------
Total Dipole Moment    :      0.264707409      -0.572552381      -0.364710247
                        -----------------------------------------
Magnitude (a.u.)       :      0.728628716
Magnitude (Debye)      :      1.852027013

Rotational constants in cm-1:             0.122095             0.035767             0.032204
Rotational constants in MHz :          3660.322850          1072.271452           965.444529

                             ****ORCA TERMINATED NORMALLY****
TOTAL RUN TIME: 0 days 0 hours 0 minutes 10 seconds 696 msec
