                         Program Version 6.0.0  -   RELEASE  -
|  1> ! pbe def2-sv(p) def2/J RI DEFGRID1 loosescf d4 GCP(DFT/SV(P)) printgap
|  2> %output
|  3>     printlevel normal
|  4> end
|  5> * xyz 0 1
|  6> C 2.9557825404 0.1870519078 0.5873287644
|  7> C 1.8921885111 -0.7413009526 0.0111217247
|  8> C 0.9530271665 -0.0480883246 -0.9778474306
|  9> C 0.1189202408 1.0904608388 -0.3868559577
| 10> C -0.8653570526 0.6494103203 0.681356498
| 11> Cl -2.1033679764 -0.4729498977 0.0076642949
| 12> H 3.5030187294 0.6793321411 -0.2133342079
| 13> H 3.6632752958 -0.3810709634 1.186513087
| 14> H 2.512059851 0.9484992787 1.222943622
| 15> H 2.3873222987 -1.5595409357 -0.5167630022
| 16> H 1.3160050494 -1.1869778839 0.8235691887
| 17> H 0.2758996706 -0.7943399589 -1.399262058
| 18> H 1.5480007727 0.358030666 -1.7983727645
| 19> H -0.4313191345 1.5743315011 -1.1958329469
| 20> H 0.7756072778 1.8360961946 0.062916203
| 21> H -0.3783926517 0.1090096708 1.4897860095
| 22> H -1.4197480021 1.4968707668 1.0799426611
| 23> *
| 24>
| 25>                          ****END OF INPUT****

CARTESIAN COORDINATES (ANGSTROEM)
---------------------------------
  C      2.955783    0.187052    0.587329
  C      1.892189   -0.741301    0.011122
  C      0.953027   -0.048088   -0.977847
  C      0.118920    1.090461   -0.386856
  C     -0.865357    0.649410    0.681356
  Cl    -2.103368   -0.472950    0.007664
  H      3.503019    0.679332   -0.213334
  H      3.663275   -0.381071    1.186513
  H      2.512060    0.948499    1.222944
  H      2.387322   -1.559541   -0.516763
  H      1.316005   -1.186978    0.823569
  H      0.275900   -0.794340   -1.399262
  H      1.548001    0.358031   -1.798373
  H     -0.431319    1.574332   -1.195833
  H      0.775607    1.836096    0.062916
  H     -0.378393    0.109010    1.489786
  H     -1.419748    1.496871    1.079943

 Total Charge           Charge          ....    0
 Multiplicity           Mult            ....    1
 Number of Electrons    NEL             ....   58
 Basis Dimension        Dim             ....  110

ORBITAL ENERGIES
----------------

  NO   OCC          E(Eh)            E(eV)
   0   2.0000    -100.616156     -2737.9048
   1   2.0000      -9.938742      -270.4469
   2   2.0000      -9.894878      -269.2533
   3   2.0000      -9.885282      -268.9922
   4   2.0000      -9.883513      -268.9441
   5   2.0000      -9.876518      -268.7537
   6   2.0000      -9.151721      -249.0310
   7   2.0000      -6.983234      -190.0235
   8   2.0000      -6.971497      -189.7041
   9   2.0000      -6.971321      -189.6993
  10   2.0000      -0.775520       -21.1030
  11   2.0000      -0.718813       -19.5599
  12   2.0000      -0.663673       -18.0595
  13   2.0000      -0.604669       -16.4539
  14   2.0000      -0.552344       -15.0300
  15   2.0000      -0.494318       -13.4511
  16   2.0000      -0.437044       -11.8926
  17   2.0000      -0.426650       -11.6097
  18   2.0000      -0.388092       -10.5605
  19   2.0000      -0.380144       -10.3442
  20   2.0000      -0.376317       -10.2401
  21   2.0000      -0.338760        -9.2181
  22   2.0000      -0.329606        -8.9690
  23   2.0000      -0.326733        -8.8908
  24   2.0000      -0.289933        -7.8895
  25   2.0000      -0.284217        -7.7340
  26   2.0000      -0.284132        -7.7316
  27   2.0000      -0.244191        -6.6448
  28   2.0000      -0.242255        -6.5921
  29   0.0000       0.011551         0.3143
  30   0.0000       0.031370         0.8536
  31   0.0000       0.058318         1.5869
  32   0.0000       0.063351         1.7239
  33   0.0000       0.074842         2.0366

MULLIKEN ATOMIC CHARGES
-----------------------
   0 C :   -0.291126
   1 C :   -0.196820
   2 C :   -0.161255
   3 C :   -0.163190
   4 C :   -0.179678
   5 Cl:   -0.156491
   6 H :    0.099506
   7 H :    0.105228
   8 H :    0.103564
   9 H :    0.089522
  10 H :    0.094690
  11 H :    0.096027
  12 H :    0.084846
  13 H :    0.098953
  14 H :    0.099114
  15 H :    0.140533
  16 H :    0.136579
Sum of atomic charges:    0.0000000

LOEWDIN ATOMIC CHARGES
----------------------
   0 C :   -0.343840
   1 C :   -0.237222
   2 C :   -0.234144
   3 C :   -0.250415
   4 C :   -0.269368
   5 Cl:    0.020023
   6 H :    0.117740
   7 H :    0.121052
   8 H :    0.113834
   9 H :    0.119533
  10 H :    0.114097
  11 H :    0.115878
  12 H :    0.116898
  13 H :    0.123859
  14 H :    0.124200
  15 H :    0.122359
  16 H :    0.125519

  Mayer bond orders larger than 0.100000
B(  0-C ,  1-C ) :   1.1472 B(  0-C ,  6-H ) :   0.9550 B(  0-C ,  7-H ) :   0.9514
B(  0-C ,  8-H ) :   0.9497 B(  1-C ,  2-C ) :   1.1237 B(  1-C ,  9-H ) :   0.9246
B(  1-C , 10-H ) :   0.9241 B(  2-C ,  3-C ) :   1.1185 B(  2-C , 11-H ) :   0.9143
B(  2-C , 12-H ) :   0.9217 B(  3-C ,  4-C ) :   1.1048 B(  3-C , 13-H ) :   0.9162
B(  3-C , 14-H ) :   0.9028 B(  4-C ,  5-Cl) :   1.0273 B(  4-C , 15-H ) :   0.9204
B(  4-C , 16-H ) :   0.9307

Dispersion correction           -0.013657462
FINAL SINGLE POINT ENERGY      -656.512468200635

DIPOLE MOMENT
-------------

Method             : SCF
Type of density    : Electron Density
Multiplicity       :   1
Irrep              :   0
Energy             :  -656.5698494884611591 Eh
Relativity type    :
Basis              : AO
                                X                 Y                 Z
Electronic contribution:    -15.185595546      -3.121301270      -0.487176450
Nuclear contribution   :     15.724588321       3.524579905       0.685932828
                        -----------------------------------------
Total Dipole Moment    :      0.538992776       0.403278634       0.198756379
                        -----------------------------------------
Magnitude (a.u.)       :      0.701890994
Magnitude (Debye)      :      1.784065124

Rotational constants in cm-1:             0.198775             0.041386             0.040199
Rotational constants in MHz :          5959.137724          1240.720023          1205.140084

                             ****ORCA TERMINATED NORMALLY****
TOTAL RUN TIME: 0 days 0 hours 0 minutes 7 seconds 215 msec
