                         Program Version 6.0.0  -   RELEASE  -
|  1> ! r2scan-3c def2/J RI DEFGRID2 scfconv6 printgap
|  2> %output
|  3>     printlevel normal
|  4> end
|  5> * xyz 0 1
|  6> C -3.5121364897 -0.826803618 0.1949020763
|  7> C -2.0959655954 -0.6490140941 -0.3365562776
|  8> C -1.2740350041 0.278744504 0.5654870497
|  9> C 0.0828375423 0.5347155582 -0.0355109017
| 10> O 0.2725062523 0.9877867859 -1.1453289338
| 11> O 1.0587752853 0.2038349063 0.8004061671
| 12> C 2.4205507733 0.369136258 0.368652481
| 13> C 2.9145956435 -0.8675360189 -0.3661250431
| 14> H -3.4921393366 -1.2469217049 1.1972368847
| 15> H -4.0287844222 0.1288267109 0.2308845267
| 16> H -4.0728568601 -1.4978322251 -0.449796557
| 17> H -2.1222670736 -0.223729402 -1.3417608474
| 18> H -1.6014390659 -1.6204554266 -0.3977773019
| 19> H -1.1451442771 -0.1516049373 1.5576285285
| 20> H -1.7874510781 1.2383894871 0.6505053965
| 21> H 2.4761252137 1.2498673001 -0.2782693524
| 22> H 2.9826558097 0.5366536747 1.287831301
| 23> H 3.9608674461 -0.738943058 -0.6234534582
| 24> H 2.8043939275 -1.7459557993 0.2639238688
| 25> H 2.3413858951 -1.0115120437 -1.2793467243
| 26> *
| 27>
| 28>                          ****END OF INPUT****

CARTESIAN COORDINATES (ANGSTROEM)
---------------------------------
  C     -3.512136   -0.826804    0.194902
  C     -2.095966   -0.649014   -0.336556
  C     -1.274035    0.278745    0.565487
  C      0.082838    0.534716   -0.035511
  O      0.272506    0.987787   -1.145329
  O      1.058775    0.203835    0.800406
  C      2.420551    0.369136    0.368652
  C      2.914596   -0.867536   -0.366125
  H     -3.492139   -1.246922    1.197237
  H     -4.028784    0.128827    0.230885
  H     -4.072857   -1.497832   -0.449797
  H     -2.122267   -0.223729   -1.341761
  H     -1.601439   -1.620455   -0.397777
  H     -1.145144   -0.151605    1.557629
  H     -1.787451    1.238389    0.650505
  H      2.476125    1.249867   -0.278269
  H      2.982656    0.536654    1.287831
  H      3.960867   -0.738943   -0.623453
  H      2.804394   -1.745956    0.263924
  H      2.341386   -1.011512   -1.279347

 Total Charge           Charge          ....    0
 Multiplicity           Mult            ....    1
 Number of Electrons    NEL             ....   64
 Basis Dimension        Dim             ....  222

ORBITAL ENERGIES
----------------

  NO   OCC          E(Eh)            E(eV)
   0   2.0000     -18.996256      -516.9144
   1   2.0000     -18.926357      -515.0124
   2   2.0000     -10.150695      -276.2144
   3   2.0000     -10.090323      -274.5716
   4   2.0000     -10.040129      -273.2058
   5   2.0000     -10.034494      -273.0525
   6   2.0000     -10.028707      -272.8950
   7   2.0000     -10.021574      -272.7009
   8   2.0000      -1.070501       -29.1298
   9   2.0000      -0.974349       -26.5134
  10   2.0000      -0.772366       -21.0172
  11   2.0000      -0.740158       -20.1407
  12   2.0000      -0.680289       -18.5116
  13   2.0000      -0.622078       -16.9276
  14   2.0000      -0.565937       -15.3999
  15   2.0000      -0.520566       -14.1653
  16   2.0000      -0.472532       -12.8583
  17   2.0000      -0.451984       -12.2991
  18   2.0000      -0.446342       -12.1456
  19   2.0000      -0.419636       -11.4189
  20   2.0000      -0.411020       -11.1844
  21   2.0000      -0.391692       -10.6585
  22   2.0000      -0.368655       -10.0316
  23   2.0000      -0.367652       -10.0043
  24   2.0000      -0.354525        -9.6471
  25   2.0000      -0.342291        -9.3142
  26   2.0000      -0.323774        -8.8103
  27   2.0000      -0.310997        -8.4627
  28   2.0000      -0.306981        -8.3534
  29   2.0000      -0.302268        -8.2251
  30   2.0000      -0.270257        -7.3541
  31   2.0000      -0.234894        -6.3918
  32   0.0000      -0.014087        -0.3833
  33   0.0000       0.078955         2.1485
  34   0.0000       0.093766         2.5515
  35   0.0000       0.103924         2.8279
  36   0.0000       0.124439         3.3862

MULLIKEN ATOMIC CHARGES
-----------------------
   0 C :   -0.471837
   1 C :   -0.226947
   2 C :   -0.350548
   3 C :    0.416988
   4 O :   -0.437024
   5 O :   -0.181150
   6 C :   -0.138754
   7 C :   -0.468364
   8 H :    0.142459
   9 H :    0.145491
  10 H :    0.150279
  11 H :    0.167681
  12 H :    0.137002
  13 H :    0.164376
  14 H :    0.164587
  15 H :    0.168711
  16 H :    0.147353
  17 H :    0.146956
  18 H :    0.151524
  19 H :    0.171219
Sum of atomic charges:   -0.0000000

LOEWDIN ATOMIC CHARGES
----------------------
   0 C :   -0.420872
   1 C :   -0.290279
   2 C :   -0.230065
   3 C :    0.360075
   4 O :   -0.438899
   5 O :   -0.595758
   6 C :    0.026896
   7 C :   -0.390364
   8 H :    0.150126
   9 H :    0.150784
  10 H :    0.152906
  11 H :    0.166499
  12 H :    0.155196
  13 H :    0.176740
  14 H :    0.180138
  15 H :    0.188638
  16 H :    0.177434
  17 H :    0.159125
  18 H :    0.156834
  19 H :    0.164847

  Mayer bond orders larger than 0.100000
B(  0-C ,  1-C ) :   0.8908 B(  0-C ,  8-H ) :   0.9802 B(  0-C ,  9-H ) :   0.9879
B(  0-C , 10-H ) :   0.9735 B(  1-C ,  2-C ) :   0.9224 B(  1-C , 11-H ) :   0.9645
B(  1-C , 12-H ) :   0.9562 B(  2-C ,  3-C ) :   0.9660 B(  2-C , 13-H ) :   0.9841
B(  2-C , 14-H ) :   0.9621 B(  3-C ,  4-O ) :   1.8218 B(  3-C ,  5-O ) :   1.0524
B(  5-O ,  6-C ) :   0.8132 B(  6-C ,  7-C ) :   0.9386 B(  6-C , 15-H ) :   0.9659
B(  6-C , 16-H ) :   0.9608 B(  7-C , 17-H ) :   0.9654 B(  7-C , 18-H ) :   0.9740
B(  7-C , 19-H ) :   0.9720

Dispersion correction           -0.004944042
FINAL SINGLE POINT ENERGY      -386.235931466562

DIPOLE MOMENT
-------------

Method             : SCF
Type of density    : Electron Density
Multiplicity       :   1
Irrep              :   0
Energy             :  -386.2426982325961831 Eh
Relativity type    :
Basis              : AO
                                X                 Y                 Z
Electronic contribution:      3.606940082       4.362274138      -0.164495593
Nuclear contribution   :     -3.437079047      -4.751235745       0.761936398
                        -----------------------------------------
Total Dipole Moment    :      0.169861035      -0.388961607       0.597440806
                        -----------------------------------------
Magnitude (a.u.)       :      0.732857025
Magnitude (Debye)      :      1.862774520

Rotational constants in cm-1:             0.159045             0.029841             0.029286
Rotational constants in MHz :          4768.048432           894.609417           877.962134

                             ****ORCA TERMINATED NORMALLY****
TOTAL RUN TIME: 0 days 0 hours 0 minutes 32 seconds 149 msec
