                         Program Version 6.0.0  -   RELEASE  -
|  1> ! r2scan-3c def2/J RI DEFGRID2 scfconv6 printgap
|  2> %output
|  3>     printlevel normal
|  4> end
|  5> %cpcm
|  6>     smd true
|  7>     smdsolvent "water"
|  8> end
|  9> * xyz 0 1
| 10> C -3.5121364897 -0.826803618 0.1949020763
| 11> C -2.0959655954 -0.6490140941 -0.3365562776
| 12> C -1.2740350041 0.278744504 0.5654870497
| 13> C 0.0828375423 0.5347155582 -0.0355109017
| 14> O 0.2725062523 0.9877867859 -1.1453289338
| 15> O 1.0587752853 0.2038349063 0.8004061671
| 16> C 2.4205507733 0.369136258 0.368652481
| 17> C 2.9145956435 -0.8675360189 -0.3661250431
| 18> H -3.4921393366 -1.2469217049 1.1972368847
| 19> H -4.0287844222 0.1288267109 0.2308845267
| 20> H -4.0728568601 -1.4978322251 -0.449796557
| 21> H -2.1222670736 -0.223729402 -1.3417608474
| 22> H -1.6014390659 -1.6204554266 -0.3977773019
| 23> H -1.1451442771 -0.1516049373 1.5576285285
| 24> H -1.7874510781 1.2383894871 0.6505053965
| 25> H 2.4761252137 1.2498673001 -0.2782693524
| 26> H 2.9826558097 0.5366536747 1.287831301
| 27> H 3.9608674461 -0.738943058 -0.6234534582
| 28> H 2.8043939275 -1.7459557993 0.2639238688
| 29> H 2.3413858951 -1.0115120437 -1.2793467243
| 30> *
| 31>
| 32>                          ****END OF INPUT****

CARTESIAN COORDINATES (ANGSTROEM)
---------------------------------
  C     -3.512136   -0.826804    0.194902
  C     -2.095966   -0.649014   -0.336556
  C     -1.274035    0.278745    0.565487
  C      0.082838    0.534716   -0.035511
  O      0.272506    0.987787   -1.145329
  O      1.058775    0.203835    0.800406
  C      2.420551    0.369136    0.368652
  C      2.914596   -0.867536   -0.366125
  H     -3.492139   -1.246922    1.197237
  H     -4.028784    0.128827    0.230885
  H     -4.072857   -1.497832   -0.449797
  H     -2.122267   -0.223729   -1.341761
  H     -1.601439   -1.620455   -0.397777
  H     -1.145144   -0.151605    1.557629
  H     -1.787451    1.238389    0.650505
  H      2.476125    1.249867   -0.278269
  H      2.982656    0.536654    1.287831
  H      3.960867   -0.738943   -0.623453
  H      2.804394   -1.745956    0.263924
  H      2.341386   -1.011512   -1.279347

 Total Charge           Charge          ....    0
 Multiplicity           Mult            ....    1
 Number of Electrons    NEL             ....   64
 Basis Dimension        Dim             ....  222

ORBITAL ENERGIES
----------------

  NO   OCC          E(Eh)            E(eV)
   0   2.0000     -19.002566      -517.0861
   1   2.0000     -18.942701      -515.4571
   2   2.0000     -10.161821      -276.5172
   3   2.0000     -10.082931      -274.3705
   4   2.0000     -10.034598      -273.0553
   5   2.0000     -10.028062      -272.8774
   6   2.0000     -10.018393      -272.6143
   7   2.0000     -10.011406      -272.4242
   8   2.0000      -1.078444       -29.3459
   9   2.0000      -0.988546       -26.8997
  10   2.0000      -0.767726       -20.8909
  11   2.0000      -0.733551       -19.9609
  12   2.0000      -0.674106       -18.3434
  13   2.0000      -0.616922       -16.7873
  14   2.0000      -0.559156       -15.2154
  15   2.0000      -0.519010       -14.1230
  16   2.0000      -0.473021       -12.8715
  17   2.0000      -0.458511       -12.4767
  18   2.0000      -0.446229       -12.1425
  19   2.0000      -0.421667       -11.4742
  20   2.0000      -0.407710       -11.0943
  21   2.0000      -0.384876       -10.4730
  22   2.0000      -0.364451        -9.9172
  23   2.0000      -0.360905        -9.8207
  24   2.0000      -0.350863        -9.5475
  25   2.0000      -0.338462        -9.2100
  26   2.0000      -0.317915        -8.6509
  27   2.0000      -0.305819        -8.3218
  28   2.0000      -0.303468        -8.2578
  29   2.0000      -0.296420        -8.0660
  30   2.0000      -0.278228        -7.5710
  31   2.0000      -0.251402        -6.8410
  32   0.0000      -0.022526        -0.6130
  33   0.0000       0.080655         2.1947
  34   0.0000       0.100978         2.7477
  35   0.0000       0.113453         3.0872
  36   0.0000       0.133297         3.6272

MULLIKEN ATOMIC CHARGES
-----------------------
   0 C :   -0.516209
   1 C :   -0.224494
   2 C :   -0.369776
   3 C :    0.458647
   4 O :   -0.520485
   5 O :   -0.200867
   6 C :   -0.143973
   7 C :   -0.493119
   8 H :    0.157322
   9 H :    0.159026
  10 H :    0.161201
  11 H :    0.158258
  12 H :    0.155035
  13 H :    0.178921
  14 H :    0.191793
  15 H :    0.171659
  16 H :    0.173317
  17 H :    0.170309
  18 H :    0.165678
  19 H :    0.167755
Sum of atomic charges:   -0.0000000

LOEWDIN ATOMIC CHARGES
----------------------
   0 C :   -0.425971
   1 C :   -0.289833
   2 C :   -0.227228
   3 C :    0.369866
   4 O :   -0.498973
   5 O :   -0.598282
   6 C :    0.031586
   7 C :   -0.393077
   8 H :    0.154717
   9 H :    0.154473
  10 H :    0.155803
  11 H :    0.162247
  12 H :    0.160447
  13 H :    0.184093
  14 H :    0.189825
  15 H :    0.189593
  16 H :    0.188812
  17 H :    0.167752
  18 H :    0.161891
  19 H :    0.162259

  Mayer bond orders larger than 0.100000
B(  0-C ,  1-C ) :   0.8871 B(  0-C ,  8-H ) :   0.9781 B(  0-C ,  9-H ) :   0.9846
B(  0-C , 10-H ) :   0.9703 B(  1-C ,  2-C ) :   0.9097 B(  1-C , 11-H ) :   0.9655
B(  1-C , 12-H ) :   0.9553 B(  2-C ,  3-C ) :   0.9669 B(  2-C , 13-H ) :   0.9763
B(  2-C , 14-H ) :   0.9525 B(  3-C ,  4-O ) :   1.7563 B(  3-C ,  5-O ) :   1.0763
B(  5-O ,  6-C ) :   0.7952 B(  6-C ,  7-C ) :   0.9378 B(  6-C , 15-H ) :   0.9619
B(  6-C , 16-H ) :   0.9515 B(  7-C , 17-H ) :   0.9604 B(  7-C , 18-H ) :   0.9700
B(  7-C , 19-H ) :   0.9695

Dispersion correction           -0.004944042
FINAL SINGLE POINT ENERGY      -386.240804176073

DIPOLE MOMENT
-------------

Method             : SCF
Type of density    : Electron Density
Multiplicity       :   1
Irrep              :   0
Energy             :  -386.2475709421074725 Eh
Relativity type    :
Basis              : AO
                                X                 Y                 Z
Electronic contribution:      3.660310170       4.224018537       0.167824629
Nuclear contribution   :     -3.437079047      -4.751235745       0.761936398
                        -----------------------------------------
Total Dipole Moment    :      0.223231123      -0.527217208       0.929761028
                        -----------------------------------------
Magnitude (a.u.)       :      1.091900035
Magnitude (Debye)      :      2.775389326

Rotational constants in cm-1:             0.159045             0.029841             0.029286
Rotational constants in MHz :          4768.048432           894.609417           877.962134

                             ****ORCA TERMINATED NORMALLY****
TOTAL RUN TIME: 0 days 0 hours 0 minutes 38 seconds 626 msec
