                         Program Version 6.0.0  -   RELEASE  -
|  1> ! r2scan-3c def2/J RI DEFGRID2 scfconv6 printgap
|  2> %output
|  3>     printlevel normal
|  4> end
|  5> * xyz 0 1
|  6> C -2.668370365 -1.0218305865 -0.4417471832
|  7> C -2.1846307211 -0.2809402417 0.7989015024
|  8> C -1.3078521653 0.9236495004 0.4348413229
|  9> C -0.0334173075 0.4884419179 -0.2421486555
| 10> O 0.2885053606 0.7911023417 -1.3729168314
| 11> O 0.7021571934 -0.2817276752 0.5493269765
| 12> C 1.9552311001 -0.7771366239 0.0521669705
| 13> C 3.0765792959 0.2197798832 0.301904
| 14> H -1.8248450718 -1.3840129777 -1.026865881
| 15> H -3.2832338315 -1.8726453219 -0.1607965116
| 16> H -3.2577430608 -0.3623024669 -1.0744401964
| 17> H -1.6100884604 -0.9569102333 1.4335918736
| 18> H -3.0442194301 0.075418935 1.3674112452
| 19> H -1.0356894543 1.46115276 1.3438341061
| 20> H -1.838231556 1.5947971163 -0.2406327971
| 21> H 2.1210819148 -1.7058494015 0.5991402079
| 22> H 1.8519449029 -0.9791533733 -1.0184669555
| 23> H 3.1353843279 0.4592607708 1.3601697928
| 24> H 4.018792275 -0.2100226273 -0.0219437538
| 25> H 2.8939459184 1.1336383521 -0.259200413
| 26> *
| 27>
| 28>                          ****END OF INPUT****

CARTESIAN COORDINATES (ANGSTROEM)
---------------------------------
  C     -2.668370   -1.021831   -0.441747
  C     -2.184631   -0.280940    0.798902
  C     -1.307852    0.923650    0.434841
  C     -0.033417    0.488442   -0.242149
  O      0.288505    0.791102   -1.372917
  O      0.702157   -0.281728    0.549327
  C      1.955231   -0.777137    0.052167
  C      3.076579    0.219780    0.301904
  H     -1.824845   -1.384013   -1.026866
  H     -3.283234   -1.872645   -0.160797
  H     -3.257743   -0.362302   -1.074440
  H     -1.610088   -0.956910    1.433592
  H     -3.044219    0.075419    1.367411
  H     -1.035689    1.461153    1.343834
  H     -1.838232    1.594797   -0.240633
  H      2.121082   -1.705849    0.599140
  H      1.851945   -0.979153   -1.018467
  H      3.135384    0.459261    1.360170
  H      4.018792   -0.210023   -0.021944
  H      2.893946    1.133638   -0.259200

 Total Charge           Charge          ....    0
 Multiplicity           Mult            ....    1
 Number of Electrons    NEL             ....   64
 Basis Dimension        Dim             ....  222

ORBITAL ENERGIES
----------------

  NO   OCC          E(Eh)            E(eV)
   0   2.0000     -18.996033      -516.9083
   1   2.0000     -18.926954      -515.0286
   2   2.0000     -10.150970      -276.2219
   3   2.0000     -10.091315      -274.5986
   4   2.0000     -10.040532      -273.2168
   5   2.0000     -10.036294      -273.1014
   6   2.0000     -10.028488      -272.8890
   7   2.0000     -10.019504      -272.6446
   8   2.0000      -1.071227       -29.1496
   9   2.0000      -0.974227       -26.5101
  10   2.0000      -0.775519       -21.1029
  11   2.0000      -0.737616       -20.0716
  12   2.0000      -0.677574       -18.4377
  13   2.0000      -0.622968       -16.9518
  14   2.0000      -0.570061       -15.5122
  15   2.0000      -0.523109       -14.2345
  16   2.0000      -0.473306       -12.8793
  17   2.0000      -0.446755       -12.1568
  18   2.0000      -0.440970       -11.9994
  19   2.0000      -0.424439       -11.5496
  20   2.0000      -0.406808       -11.0698
  21   2.0000      -0.396547       -10.7906
  22   2.0000      -0.370971       -10.0946
  23   2.0000      -0.368231       -10.0201
  24   2.0000      -0.351203        -9.5567
  25   2.0000      -0.340069        -9.2538
  26   2.0000      -0.324089        -8.8189
  27   2.0000      -0.311946        -8.4885
  28   2.0000      -0.310583        -8.4514
  29   2.0000      -0.304385        -8.2827
  30   2.0000      -0.270574        -7.3627
  31   2.0000      -0.231718        -6.3054
  32   0.0000      -0.014750        -0.4014
  33   0.0000       0.072954         1.9852
  34   0.0000       0.090045         2.4502
  35   0.0000       0.115031         3.1301
  36   0.0000       0.116367         3.1665

MULLIKEN ATOMIC CHARGES
-----------------------
   0 C :   -0.481950
   1 C :   -0.226569
   2 C :   -0.321479
   3 C :    0.365575
   4 O :   -0.425990
   5 O :   -0.174261
   6 C :   -0.133901
   7 C :   -0.466908
   8 H :    0.155307
   9 H :    0.147275
  10 H :    0.149551
  11 H :    0.153406
  12 H :    0.145538
  13 H :    0.159005
  14 H :    0.169605
  15 H :    0.147273
  16 H :    0.168503
  17 H :    0.150863
  18 H :    0.146639
  19 H :    0.172518
Sum of atomic charges:    0.0000000

LOEWDIN ATOMIC CHARGES
----------------------
   0 C :   -0.414834
   1 C :   -0.293097
   2 C :   -0.230435
   3 C :    0.352347
   4 O :   -0.432152
   5 O :   -0.600680
   6 C :    0.027368
   7 C :   -0.390232
   8 H :    0.156227
   9 H :    0.151737
  10 H :    0.153237
  11 H :    0.164039
  12 H :    0.153014
  13 H :    0.179321
  14 H :    0.177257
  15 H :    0.177148
  16 H :    0.188415
  17 H :    0.156853
  18 H :    0.159079
  19 H :    0.165388

  Mayer bond orders larger than 0.100000
B(  0-C ,  1-C ) :   0.9126 B(  0-C ,  8-H ) :   0.9700 B(  0-C ,  9-H ) :   0.9703
B(  0-C , 10-H ) :   0.9787 B(  1-C ,  2-C ) :   0.8814 B(  1-C , 11-H ) :   0.9728
B(  1-C , 12-H ) :   0.9647 B(  2-C ,  3-C ) :   0.9576 B(  2-C , 13-H ) :   0.9453
B(  2-C , 14-H ) :   1.0069 B(  3-C ,  4-O ) :   1.8468 B(  3-C ,  5-O ) :   1.0350
B(  5-O ,  6-C ) :   0.8186 B(  6-C ,  7-C ) :   0.9382 B(  6-C , 15-H ) :   0.9612
B(  6-C , 16-H ) :   0.9671 B(  7-C , 17-H ) :   0.9736 B(  7-C , 18-H ) :   0.9656
B(  7-C , 19-H ) :   0.9714

Dispersion correction           -0.005192128
FINAL SINGLE POINT ENERGY      -386.235943034808

DIPOLE MOMENT
-------------

Method             : SCF
Type of density    : Electron Density
Multiplicity       :   1
Irrep              :   0
Energy             :  -386.2424677119053626 Eh
Relativity type    :
Basis              : AO
                                X                 Y                 Z
Electronic contribution:      1.821918174       2.203441756      -1.405020112
Nuclear contribution   :     -1.742404132      -2.569242270       2.147260452
                        -----------------------------------------
Total Dipole Moment    :      0.079514042      -0.365800515       0.742240340
                        -----------------------------------------
Magnitude (a.u.)       :      0.831296109
Magnitude (Debye)      :      2.112986788

Rotational constants in cm-1:             0.138521             0.036047             0.034478
Rotational constants in MHz :          4152.760876          1080.657782          1033.610048

                             ****ORCA TERMINATED NORMALLY****
TOTAL RUN TIME: 0 days 0 hours 0 minutes 31 seconds 366 msec
