                         Program Version 6.0.0  -   RELEASE  -
|  1> ! r2scan-3c def2/J RI DEFGRID2 scfconv6 printgap
|  2> %output
|  3>     printlevel normal
|  4> end
|  5> %cpcm
|  6>     smd true
|  7>     smdsolvent "water"
|  8> end
|  9> * xyz 0 1
| 10> C -2.668370365 -1.0218305865 -0.4417471832
| 11> C -2.1846307211 -0.2809402417 0.7989015024
| 12> C -1.3078521653 0.9236495004 0.4348413229
| 13> C -0.0334173075 0.4884419179 -0.2421486555
| 14> O 0.2885053606 0.7911023417 -1.3729168314
| 15> O 0.7021571934 -0.2817276752 0.5493269765
| 16> C 1.9552311001 -0.7771366239 0.0521669705
| 17> C 3.0765792959 0.2197798832 0.301904
| 18> H -1.8248450718 -1.3840129777 -1.026865881
| 19> H -3.2832338315 -1.8726453219 -0.1607965116
| 20> H -3.2577430608 -0.3623024669 -1.0744401964
| 21> H -1.6100884604 -0.9569102333 1.4335918736
| 22> H -3.0442194301 0.075418935 1.3674112452
| 23> H -1.0356894543 1.46115276 1.3438341061
| 24> H -1.838231556 1.5947971163 -0.2406327971
| 25> H 2.1210819148 -1.7058494015 0.5991402079
| 26> H 1.8519449029 -0.9791533733 -1.0184669555
| 27> H 3.1353843279 0.4592607708 1.3601697928
| 28> H 4.018792275 -0.2100226273 -0.0219437538
| 29> H 2.8939459184 1.1336383521 -0.259200413
| 30> *
| 31>
| 32>                          ****END OF INPUT****

CARTESIAN COORDINATES (ANGSTROEM)
---------------------------------
  C     -2.668370   -1.021831   -0.441747
  C     -2.184631   -0.280940    0.798902
  C     -1.307852    0.923650    0.434841
  C     -0.033417    0.488442   -0.242149
  O      0.288505    0.791102   -1.372917
  O      0.702157   -0.281728    0.549327
  C      1.955231   -0.777137    0.052167
  C      3.076579    0.219780    0.301904
  H     -1.824845   -1.384013   -1.026866
  H     -3.283234   -1.872645   -0.160797
  H     -3.257743   -0.362302   -1.074440
  H     -1.610088   -0.956910    1.433592
  H     -3.044219    0.075419    1.367411
  H     -1.035689    1.461153    1.343834
  H     -1.838232    1.594797   -0.240633
  H      2.121082   -1.705849    0.599140
  H      1.851945   -0.979153   -1.018467
  H      3.135384    0.459261    1.360170
  H      4.018792   -0.210023   -0.021944
  H      2.893946    1.133638   -0.259200

 Total Charge           Charge          ....    0
 Multiplicity           Mult            ....    1
 Number of Electrons    NEL             ....   64
 Basis Dimension        Dim             ....  222

ORBITAL ENERGIES
----------------

  NO   OCC          E(Eh)            E(eV)
   0   2.0000     -19.001644      -517.0610
   1   2.0000     -18.943249      -515.4720
   2   2.0000     -10.162009      -276.5223
   3   2.0000     -10.083395      -274.3831
   4   2.0000     -10.035248      -273.0730
   5   2.0000     -10.028508      -272.8896
   6   2.0000     -10.018176      -272.6084
   7   2.0000     -10.011704      -272.4323
   8   2.0000      -1.078642       -29.3514
   9   2.0000      -0.988336       -26.8940
  10   2.0000      -0.770925       -20.9779
  11   2.0000      -0.730683       -19.8829
  12   2.0000      -0.672214       -18.2919
  13   2.0000      -0.617831       -16.8120
  14   2.0000      -0.564272       -15.3546
  15   2.0000      -0.520736       -14.1699
  16   2.0000      -0.471773       -12.8376
  17   2.0000      -0.455373       -12.3913
  18   2.0000      -0.445649       -12.1267
  19   2.0000      -0.417374       -11.3573
  20   2.0000      -0.404402       -11.0043
  21   2.0000      -0.392948       -10.6927
  22   2.0000      -0.365830        -9.9547
  23   2.0000      -0.363163        -9.8822
  24   2.0000      -0.350344        -9.5333
  25   2.0000      -0.335602        -9.1322
  26   2.0000      -0.318313        -8.6617
  27   2.0000      -0.307256        -8.3609
  28   2.0000      -0.305226        -8.3056
  29   2.0000      -0.300548        -8.1783
  30   2.0000      -0.277258        -7.5446
  31   2.0000      -0.247497        -6.7347
  32   0.0000      -0.023342        -0.6352
  33   0.0000       0.076971         2.0945
  34   0.0000       0.096501         2.6259
  35   0.0000       0.122851         3.3429
  36   0.0000       0.125264         3.4086

MULLIKEN ATOMIC CHARGES
-----------------------
   0 C :   -0.528870
   1 C :   -0.220258
   2 C :   -0.341948
   3 C :    0.402602
   4 O :   -0.511435
   5 O :   -0.191277
   6 C :   -0.140598
   7 C :   -0.491655
   8 H :    0.161645
   9 H :    0.161734
  10 H :    0.163533
  11 H :    0.156552
  12 H :    0.163309
  13 H :    0.188507
  14 H :    0.179234
  15 H :    0.173668
  16 H :    0.172225
  17 H :    0.165174
  18 H :    0.170053
  19 H :    0.167806
Sum of atomic charges:   -0.0000000

LOEWDIN ATOMIC CHARGES
----------------------
   0 C :   -0.423009
   1 C :   -0.289802
   2 C :   -0.228528
   3 C :    0.361349
   4 O :   -0.493040
   5 O :   -0.601578
   6 C :    0.032196
   7 C :   -0.393181
   8 H :    0.155945
   9 H :    0.156422
  10 H :    0.156094
  11 H :    0.164773
  12 H :    0.160145
  13 H :    0.190881
  14 H :    0.181167
  15 H :    0.188695
  16 H :    0.189645
  17 H :    0.161867
  18 H :    0.167709
  19 H :    0.162252

  Mayer bond orders larger than 0.100000
B(  0-C ,  1-C ) :   0.8973 B(  0-C ,  8-H ) :   0.9688 B(  0-C ,  9-H ) :   0.9662
B(  0-C , 10-H ) :   0.9776 B(  1-C ,  2-C ) :   0.8724 B(  1-C , 11-H ) :   0.9722
B(  1-C , 12-H ) :   0.9615 B(  2-C ,  3-C ) :   0.9576 B(  2-C , 13-H ) :   0.9357
B(  2-C , 14-H ) :   1.0022 B(  3-C ,  4-O ) :   1.7740 B(  3-C ,  5-O ) :   1.0633
B(  5-O ,  6-C ) :   0.8004 B(  6-C ,  7-C ) :   0.9368 B(  6-C , 15-H ) :   0.9519
B(  6-C , 16-H ) :   0.9636 B(  7-C , 17-H ) :   0.9697 B(  7-C , 18-H ) :   0.9606
B(  7-C , 19-H ) :   0.9692

Dispersion correction           -0.005192128
FINAL SINGLE POINT ENERGY      -386.241056889665

DIPOLE MOMENT
-------------

Method             : SCF
Type of density    : Electron Density
Multiplicity       :   1
Irrep              :   0
Energy             :  -386.2475815667617098 Eh
Relativity type    :
Basis              : AO
                                X                 Y                 Z
Electronic contribution:      1.813505865       2.056966291      -1.055821361
Nuclear contribution   :     -1.742404132      -2.569242270       2.147260452
                        -----------------------------------------
Total Dipole Moment    :      0.071101733      -0.512275979       1.091439091
                        -----------------------------------------
Magnitude (a.u.)       :      1.207775404
Magnitude (Debye)      :      3.069921105

Rotational constants in cm-1:             0.138521             0.036047             0.034478
Rotational constants in MHz :          4152.760876          1080.657782          1033.610048

                             ****ORCA TERMINATED NORMALLY****
TOTAL RUN TIME: 0 days 0 hours 0 minutes 38 seconds 582 msec
