                         Program Version 6.0.0  -   RELEASE  -
|  1> ! pbe def2-sv(p) def2/J RI DEFGRID1 loosescf d4 GCP(DFT/SV(P)) printgap
|  2> %output
|  3>     printlevel normal
|  4> end
|  5> * xyz 0 1
|  6> C -3.7861750098 -0.6264198511 -0.245917959
|  7> C -2.6761061458 0.1048162704 0.4996538669
|  8> C -1.3116451849 -0.1556368787 -0.1336534224
|  9> C -0.1925842183 0.5838369039 0.6113277087
| 10> C 1.1165350375 0.3786728715 -0.1014329085
| 11> O 1.3823117623 0.8041359892 -1.2064011246
| 12> O 1.9605353039 -0.3553791296 0.6146519
| 13> C 3.2378021402 -0.6466251861 0.0402930803
| 14> H -4.7493589495 -0.4282880883 0.216777541
| 15> H -3.8278869321 -0.2988748262 -1.2821443611
| 16> H -3.6119461755 -1.6997997549 -0.2334232304
| 17> H -2.8784856334 1.1773540413 0.4906617858
| 18> H -2.658707894 -0.2237926655 1.5403334927
| 19> H -1.3174042903 0.1746482022 -1.1746549109
| 20> H -1.1038394677 -1.2277345413 -0.1236279345
| 21> H -0.1016129314 0.2174436509 1.632724306
| 22> H -0.4139735058 1.6519343076 0.6186862897
| 23> H 3.7816729076 0.280175033 -0.1453821818
| 24> H 3.1094859124 -1.1773985088 -0.9036561003
| 25> H 3.753470918 -1.2630050209 0.7696138038
| 26> *
| 27>
| 28>                          ****END OF INPUT****

CARTESIAN COORDINATES (ANGSTROEM)
---------------------------------
  C     -3.786175   -0.626420   -0.245918
  C     -2.676106    0.104816    0.499654
  C     -1.311645   -0.155637   -0.133653
  C     -0.192584    0.583837    0.611328
  C      1.116535    0.378673   -0.101433
  O      1.382312    0.804136   -1.206401
  O      1.960535   -0.355379    0.614652
  C      3.237802   -0.646625    0.040293
  H     -4.749359   -0.428288    0.216778
  H     -3.827887   -0.298875   -1.282144
  H     -3.611946   -1.699800   -0.233423
  H     -2.878486    1.177354    0.490662
  H     -2.658708   -0.223793    1.540333
  H     -1.317404    0.174648   -1.174655
  H     -1.103839   -1.227735   -0.123628
  H     -0.101613    0.217444    1.632724
  H     -0.413974    1.651934    0.618686
  H      3.781673    0.280175   -0.145382
  H      3.109486   -1.177399   -0.903656
  H      3.753471   -1.263005    0.769614

 Total Charge           Charge          ....    0
 Multiplicity           Mult            ....    1
 Number of Electrons    NEL             ....   64
 Basis Dimension        Dim             ....  136

ORBITAL ENERGIES
----------------

  NO   OCC          E(Eh)            E(eV)
   0   2.0000     -18.798923      -511.5447
   1   2.0000     -18.729740      -509.6621
   2   2.0000     -10.002654      -272.1861
   3   2.0000      -9.940977      -270.5077
   4   2.0000      -9.896085      -269.2862
   5   2.0000      -9.891694      -269.1667
   6   2.0000      -9.887684      -269.0576
   7   2.0000      -9.876521      -268.7538
   8   2.0000      -1.004303       -27.3285
   9   2.0000      -0.906638       -24.6709
  10   2.0000      -0.731714       -19.9110
  11   2.0000      -0.686681       -18.6855
  12   2.0000      -0.646605       -17.5950
  13   2.0000      -0.578076       -15.7302
  14   2.0000      -0.522512       -14.2183
  15   2.0000      -0.505223       -13.7478
  16   2.0000      -0.443744       -12.0749
  17   2.0000      -0.437314       -11.8999
  18   2.0000      -0.430317       -11.7095
  19   2.0000      -0.409047       -11.1307
  20   2.0000      -0.389659       -10.6032
  21   2.0000      -0.371104       -10.0982
  22   2.0000      -0.370338       -10.0774
  23   2.0000      -0.351045        -9.5524
  24   2.0000      -0.333743        -9.0816
  25   2.0000      -0.315057        -8.5731
  26   2.0000      -0.305762        -8.3202
  27   2.0000      -0.297901        -8.1063
  28   2.0000      -0.290019        -7.8918
  29   2.0000      -0.286865        -7.8060
  30   2.0000      -0.256315        -6.9747
  31   2.0000      -0.215484        -5.8636
  32   0.0000      -0.018477        -0.5028
  33   0.0000       0.038976         1.0606
  34   0.0000       0.054897         1.4938
  35   0.0000       0.066928         1.8212
  36   0.0000       0.070222         1.9108

MULLIKEN ATOMIC CHARGES
-----------------------
   0 C :   -0.257248
   1 C :   -0.166533
   2 C :   -0.234686
   3 C :   -0.099076
   4 C :    0.104506
   5 O :   -0.216151
   6 O :   -0.237319
   7 C :   -0.108332
   8 H :    0.103165
   9 H :    0.100506
  10 H :    0.097830
  11 H :    0.085494
  12 H :    0.083755
  13 H :    0.103700
  14 H :    0.089497
  15 H :    0.090709
  16 H :    0.101985
  17 H :    0.118698
  18 H :    0.118851
  19 H :    0.120649
Sum of atomic charges:   -0.0000000

LOEWDIN ATOMIC CHARGES
----------------------
   0 C :   -0.338902
   1 C :   -0.233496
   2 C :   -0.218421
   3 C :   -0.242611
   4 C :    0.034995
   5 O :   -0.173259
   6 O :   -0.074245
   7 C :   -0.203964
   8 H :    0.119512
   9 H :    0.118496
  10 H :    0.117321
  11 H :    0.115595
  12 H :    0.114451
  13 H :    0.122799
  14 H :    0.117244
  15 H :    0.127234
  16 H :    0.137848
  17 H :    0.119874
  18 H :    0.119415
  19 H :    0.120114

  Mayer bond orders larger than 0.100000
B(  0-C ,  1-C ) :   1.1595 B(  0-C ,  8-H ) :   0.9526 B(  0-C ,  9-H ) :   0.9542
B(  0-C , 10-H ) :   0.9544 B(  1-C ,  2-C ) :   1.1353 B(  1-C , 11-H ) :   0.9251
B(  1-C , 12-H ) :   0.9239 B(  2-C ,  3-C ) :   1.1285 B(  2-C , 13-H ) :   0.9188
B(  2-C , 14-H ) :   0.9249 B(  3-C ,  4-C ) :   1.0217 B(  3-C , 15-H ) :   0.9032
B(  3-C , 16-H ) :   0.8912 B(  4-C ,  5-O ) :   2.0492 B(  4-C ,  6-O ) :   1.2227
B(  6-O ,  7-C ) :   0.9392 B(  7-C , 17-H ) :   0.9521 B(  7-C , 18-H ) :   0.9516
B(  7-C , 19-H ) :   0.9592

Dispersion correction           -0.014463169
FINAL SINGLE POINT ENERGY      -385.452958302553

DIPOLE MOMENT
-------------

Method             : SCF
Type of density    : Electron Density
Multiplicity       :   1
Irrep              :   0
Energy             :  -385.5279490758354086 Eh
Relativity type    :
Basis              : AO
                                X                 Y                 Z
Electronic contribution:      9.403172803       2.248924681      -0.749948865
Nuclear contribution   :     -9.349535499      -2.636478610       1.310201980
                        -----------------------------------------
Total Dipole Moment    :      0.053637304      -0.387553929       0.560253115
                        -----------------------------------------
Magnitude (a.u.)       :      0.683343662
Magnitude (Debye)      :      1.736921554

Rotational constants in cm-1:             0.191294             0.025794             0.024959
Rotational constants in MHz :          5734.859697           773.292714           748.245055

                             ****ORCA TERMINATED NORMALLY****
TOTAL RUN TIME: 0 days 0 hours 0 minutes 10 seconds 482 msec
