                         Program Version 6.0.0  -   RELEASE  -
|  1> ! r2scan-3c def2/J RI DEFGRID2 scfconv6 printgap
|  2> %output
|  3>     printlevel normal
|  4> end
|  5> * xyz 0 1
|  6> C -3.5752182483 -1.0498495992 0.4142273766
|  7> C -2.6741436512 0.1267334127 0.0584289094
|  8> C -1.1975129311 -0.2610044351 0.1124503586
|  9> C -0.2992923994 0.9180569693 -0.2485770742
| 10> C 1.1752750768 0.614677816 -0.2154139831
| 11> O 2.0391294321 1.4277784755 -0.4817901714
| 12> O 1.4470869326 -0.6341590496 0.1362998648
| 13> C 2.8224955883 -1.0184104279 0.198077425
| 14> H -3.4195543877 -1.87213244 -0.2800950126
| 15> H -3.3585922984 -1.4050409935 1.4188884854
| 16> H -4.6208952114 -0.7563858487 0.3710476851
| 17> H -2.9190188621 0.4803939025 -0.9451064946
| 18> H -2.8583140134 0.9479199234 0.7540327348
| 19> H -1.0112807623 -1.0839331842 -0.5793621177
| 20> H -0.9494227375 -0.6123421661 1.1151636321
| 21> H -0.4678884562 1.7546140674 0.4341282466
| 22> H -0.5273200761 1.284110096 -1.2526755675
| 23> H 3.3567697431 -0.3824064856 0.9048253373
| 24> H 3.2826215493 -0.9175789313 -0.785538908
| 25> H 2.8218180597 -2.0532628989 0.5252260985
| 26> *
| 27>
| 28>                          ****END OF INPUT****

CARTESIAN COORDINATES (ANGSTROEM)
---------------------------------
  C     -3.575218   -1.049850    0.414227
  C     -2.674144    0.126733    0.058429
  C     -1.197513   -0.261004    0.112450
  C     -0.299292    0.918057   -0.248577
  C      1.175275    0.614678   -0.215414
  O      2.039129    1.427778   -0.481790
  O      1.447087   -0.634159    0.136300
  C      2.822496   -1.018410    0.198077
  H     -3.419554   -1.872132   -0.280095
  H     -3.358592   -1.405041    1.418888
  H     -4.620895   -0.756386    0.371048
  H     -2.919019    0.480394   -0.945106
  H     -2.858314    0.947920    0.754033
  H     -1.011281   -1.083933   -0.579362
  H     -0.949423   -0.612342    1.115164
  H     -0.467888    1.754614    0.434128
  H     -0.527320    1.284110   -1.252676
  H      3.356770   -0.382406    0.904825
  H      3.282622   -0.917579   -0.785539
  H      2.821818   -2.053263    0.525226

 Total Charge           Charge          ....    0
 Multiplicity           Mult            ....    1
 Number of Electrons    NEL             ....   64
 Basis Dimension        Dim             ....  222

ORBITAL ENERGIES
----------------

  NO   OCC          E(Eh)            E(eV)
   0   2.0000     -19.001416      -517.0548
   1   2.0000     -18.925644      -514.9930
   2   2.0000     -10.152267      -276.2572
   3   2.0000     -10.088010      -274.5087
   4   2.0000     -10.043678      -273.3024
   5   2.0000     -10.030365      -272.9401
   6   2.0000     -10.029333      -272.9120
   7   2.0000     -10.019002      -272.6309
   8   2.0000      -1.074953       -29.2509
   9   2.0000      -0.973518       -26.4908
  10   2.0000      -0.779602       -21.2140
  11   2.0000      -0.728830       -19.8325
  12   2.0000      -0.684980       -18.6392
  13   2.0000      -0.619827       -16.8663
  14   2.0000      -0.553593       -15.0640
  15   2.0000      -0.536875       -14.6091
  16   2.0000      -0.466945       -12.7062
  17   2.0000      -0.466569       -12.6960
  18   2.0000      -0.440669       -11.9912
  19   2.0000      -0.435804       -11.8588
  20   2.0000      -0.401586       -10.9277
  21   2.0000      -0.396677       -10.7941
  22   2.0000      -0.388297       -10.5661
  23   2.0000      -0.355074        -9.6620
  24   2.0000      -0.350123        -9.5273
  25   2.0000      -0.329071        -8.9545
  26   2.0000      -0.322622        -8.7790
  27   2.0000      -0.311474        -8.4756
  28   2.0000      -0.307412        -8.3651
  29   2.0000      -0.301702        -8.2097
  30   2.0000      -0.272373        -7.4116
  31   2.0000      -0.231893        -6.3101
  32   0.0000      -0.013949        -0.3796
  33   0.0000       0.062089         1.6895
  34   0.0000       0.095732         2.6050
  35   0.0000       0.098748         2.6871
  36   0.0000       0.114711         3.1214

MULLIKEN ATOMIC CHARGES
-----------------------
   0 C :   -0.469073
   1 C :   -0.215154
   2 C :   -0.302272
   3 C :   -0.304668
   4 C :    0.335992
   5 O :   -0.409428
   6 O :   -0.154322
   7 C :   -0.296441
   8 H :    0.142211
   9 H :    0.142141
  10 H :    0.148272
  11 H :    0.134951
  12 H :    0.135097
  13 H :    0.148697
  14 H :    0.149177
  15 H :    0.169825
  16 H :    0.169777
  17 H :    0.162977
  18 H :    0.161431
  19 H :    0.150810
Sum of atomic charges:   -0.0000000

LOEWDIN ATOMIC CHARGES
----------------------
   0 C :   -0.423602
   1 C :   -0.314991
   2 C :   -0.291344
   3 C :   -0.226339
   4 C :    0.357356
   5 O :   -0.428706
   6 O :   -0.612264
   7 C :   -0.041471
   8 H :    0.150209
   9 H :    0.150216
  10 H :    0.150578
  11 H :    0.151680
  12 H :    0.151691
  13 H :    0.163340
  14 H :    0.163643
  15 H :    0.184518
  16 H :    0.184424
  17 H :    0.177962
  18 H :    0.177137
  19 H :    0.175963

  Mayer bond orders larger than 0.100000
B(  0-C ,  1-C ) :   0.8965 B(  0-C ,  8-H ) :   0.9833 B(  0-C ,  9-H ) :   0.9832
B(  0-C , 10-H ) :   0.9754 B(  1-C ,  2-C ) :   0.9148 B(  1-C , 11-H ) :   0.9720
B(  1-C , 12-H ) :   0.9719 B(  2-C ,  3-C ) :   0.9266 B(  2-C , 13-H ) :   0.9724
B(  2-C , 14-H ) :   0.9721 B(  3-C ,  4-C ) :   1.0088 B(  3-C , 15-H ) :   0.9481
B(  3-C , 16-H ) :   0.9493 B(  4-C ,  5-O ) :   1.8409 B(  4-C ,  6-O ) :   1.0916
B(  6-O ,  7-C ) :   0.8444 B(  7-C , 17-H ) :   0.9614 B(  7-C , 18-H ) :   0.9608
B(  7-C , 19-H ) :   0.9705

Dispersion correction           -0.004934437
FINAL SINGLE POINT ENERGY      -386.229812963139

DIPOLE MOMENT
-------------

Method             : SCF
Type of density    : Electron Density
Multiplicity       :   1
Irrep              :   0
Energy             :  -386.2368243982899116 Eh
Relativity type    :
Basis              : AO
                                X                 Y                 Z
Electronic contribution:      9.580558787       3.579153833      -1.342485721
Nuclear contribution   :     -9.959555309      -4.318851740       1.571498159
                        -----------------------------------------
Total Dipole Moment    :     -0.378996522      -0.739697906       0.229012438
                        -----------------------------------------
Magnitude (a.u.)       :      0.862112553
Magnitude (Debye)      :      2.191315962

Rotational constants in cm-1:             0.154744             0.029106             0.025069
Rotational constants in MHz :          4639.108054           872.579104           751.543701

                             ****ORCA TERMINATED NORMALLY****
TOTAL RUN TIME: 0 days 0 hours 0 minutes 27 seconds 805 msec
