                         Program Version 6.0.0  -   RELEASE  -
|  1> ! r2scan-3c def2/J RI DEFGRID2 scfconv6 printgap
|  2> %output
|  3>     printlevel normal
|  4> end
|  5> %cpcm
|  6>     smd true
|  7>     smdsolvent "water"
|  8> end
|  9> * xyz 0 1
| 10> C -3.5752182483 -1.0498495992 0.4142273766
| 11> C -2.6741436512 0.1267334127 0.0584289094
| 12> C -1.1975129311 -0.2610044351 0.1124503586
| 13> C -0.2992923994 0.9180569693 -0.2485770742
| 14> C 1.1752750768 0.614677816 -0.2154139831
| 15> O 2.0391294321 1.4277784755 -0.4817901714
| 16> O 1.4470869326 -0.6341590496 0.1362998648
| 17> C 2.8224955883 -1.0184104279 0.198077425
| 18> H -3.4195543877 -1.87213244 -0.2800950126
| 19> H -3.3585922984 -1.4050409935 1.4188884854
| 20> H -4.6208952114 -0.7563858487 0.3710476851
| 21> H -2.9190188621 0.4803939025 -0.9451064946
| 22> H -2.8583140134 0.9479199234 0.7540327348
| 23> H -1.0112807623 -1.0839331842 -0.5793621177
| 24> H -0.9494227375 -0.6123421661 1.1151636321
| 25> H -0.4678884562 1.7546140674 0.4341282466
| 26> H -0.5273200761 1.284110096 -1.2526755675
| 27> H 3.3567697431 -0.3824064856 0.9048253373
| 28> H 3.2826215493 -0.9175789313 -0.785538908
| 29> H 2.8218180597 -2.0532628989 0.5252260985
| 30> *
| 31>
| 32>                          ****END OF INPUT****

CARTESIAN COORDINATES (ANGSTROEM)
---------------------------------
  C     -3.575218   -1.049850    0.414227
  C     -2.674144    0.126733    0.058429
  C     -1.197513   -0.261004    0.112450
  C     -0.299292    0.918057   -0.248577
  C      1.175275    0.614678   -0.215414
  O      2.039129    1.427778   -0.481790
  O      1.447087   -0.634159    0.136300
  C      2.822496   -1.018410    0.198077
  H     -3.419554   -1.872132   -0.280095
  H     -3.358592   -1.405041    1.418888
  H     -4.620895   -0.756386    0.371048
  H     -2.919019    0.480394   -0.945106
  H     -2.858314    0.947920    0.754033
  H     -1.011281   -1.083933   -0.579362
  H     -0.949423   -0.612342    1.115164
  H     -0.467888    1.754614    0.434128
  H     -0.527320    1.284110   -1.252676
  H      3.356770   -0.382406    0.904825
  H      3.282622   -0.917579   -0.785539
  H      2.821818   -2.053263    0.525226

 Total Charge           Charge          ....    0
 Multiplicity           Mult            ....    1
 Number of Electrons    NEL             ....   64
 Basis Dimension        Dim             ....  222

ORBITAL ENERGIES
----------------

  NO   OCC          E(Eh)            E(eV)
   0   2.0000     -19.005722      -517.1720
   1   2.0000     -18.941754      -515.4313
   2   2.0000     -10.162529      -276.5365
   3   2.0000     -10.076981      -274.2086
   4   2.0000     -10.036545      -273.1083
   5   2.0000     -10.020949      -272.6839
   6   2.0000     -10.017638      -272.5938
   7   2.0000     -10.007992      -272.3313
   8   2.0000      -1.080957       -29.4143
   9   2.0000      -0.987376       -26.8679
  10   2.0000      -0.771463       -20.9926
  11   2.0000      -0.721951       -19.6453
  12   2.0000      -0.677336       -18.4313
  13   2.0000      -0.612296       -16.6614
  14   2.0000      -0.543882       -14.7998
  15   2.0000      -0.533904       -14.5283
  16   2.0000      -0.464635       -12.6434
  17   2.0000      -0.464085       -12.6284
  18   2.0000      -0.450706       -12.2643
  19   2.0000      -0.431749       -11.7485
  20   2.0000      -0.392706       -10.6861
  21   2.0000      -0.390718       -10.6320
  22   2.0000      -0.382611       -10.4114
  23   2.0000      -0.353497        -9.6192
  24   2.0000      -0.341483        -9.2922
  25   2.0000      -0.327533        -8.9126
  26   2.0000      -0.314930        -8.5697
  27   2.0000      -0.307795        -8.3755
  28   2.0000      -0.297894        -8.1061
  29   2.0000      -0.291265        -7.9257
  30   2.0000      -0.278896        -7.5891
  31   2.0000      -0.247320        -6.7299
  32   0.0000      -0.021206        -0.5770
  33   0.0000       0.068606         1.8669
  34   0.0000       0.105726         2.8769
  35   0.0000       0.107826         2.9341
  36   0.0000       0.126823         3.4510

MULLIKEN ATOMIC CHARGES
-----------------------
   0 C :   -0.512645
   1 C :   -0.234426
   2 C :   -0.313855
   3 C :   -0.316971
   4 C :    0.382314
   5 O :   -0.502390
   6 O :   -0.166779
   7 C :   -0.331888
   8 H :    0.153591
   9 H :    0.153482
  10 H :    0.157684
  11 H :    0.147163
  12 H :    0.147456
  13 H :    0.158695
  14 H :    0.158506
  15 H :    0.192171
  16 H :    0.191613
  17 H :    0.178372
  18 H :    0.178803
  19 H :    0.179102
Sum of atomic charges:   -0.0000000

LOEWDIN ATOMIC CHARGES
----------------------
   0 C :   -0.432271
   1 C :   -0.314569
   2 C :   -0.290743
   3 C :   -0.224825
   4 C :    0.368927
   5 O :   -0.494959
   6 O :   -0.611491
   7 C :   -0.039129
   8 H :    0.152565
   9 H :    0.152557
  10 H :    0.152650
  11 H :    0.155099
  12 H :    0.155140
  13 H :    0.165102
  14 H :    0.165243
  15 H :    0.193545
  16 H :    0.193257
  17 H :    0.182885
  18 H :    0.182648
  19 H :    0.188369

  Mayer bond orders larger than 0.100000
B(  0-C ,  1-C ) :   0.8839 B(  0-C ,  8-H ) :   0.9812 B(  0-C ,  9-H ) :   0.9811
B(  0-C , 10-H ) :   0.9729 B(  1-C ,  2-C ) :   0.9147 B(  1-C , 11-H ) :   0.9724
B(  1-C , 12-H ) :   0.9725 B(  2-C ,  3-C ) :   0.9207 B(  2-C , 13-H ) :   0.9715
B(  2-C , 14-H ) :   0.9710 B(  3-C ,  4-C ) :   1.0144 B(  3-C , 15-H ) :   0.9360
B(  3-C , 16-H ) :   0.9377 B(  4-C ,  5-O ) :   1.7694 B(  4-C ,  6-O ) :   1.1220
B(  6-O ,  7-C ) :   0.8242 B(  7-C , 17-H ) :   0.9563 B(  7-C , 18-H ) :   0.9555
B(  7-C , 19-H ) :   0.9603

Dispersion correction           -0.004934437
FINAL SINGLE POINT ENERGY      -386.235302027991

DIPOLE MOMENT
-------------

Method             : SCF
Type of density    : Electron Density
Multiplicity       :   1
Irrep              :   0
Energy             :  -386.2423134631422386 Eh
Relativity type    :
Basis              : AO
                                X                 Y                 Z
Electronic contribution:      9.406573110       3.337519259      -1.266332695
Nuclear contribution   :     -9.959555309      -4.318851740       1.571498159
                        -----------------------------------------
Total Dipole Moment    :     -0.552982199      -0.981332481       0.305165464
                        -----------------------------------------
Magnitude (a.u.)       :      1.167017014
Magnitude (Debye)      :      2.966321511

Rotational constants in cm-1:             0.154744             0.029106             0.025069
Rotational constants in MHz :          4639.108054           872.579104           751.543701

                             ****ORCA TERMINATED NORMALLY****
TOTAL RUN TIME: 0 days 0 hours 0 minutes 33 seconds 86 msec
