                         Program Version 6.0.0  -   RELEASE  -
|  1> ! r2scan-3c def2/J RI DEFGRID2 scfconv6 printgap
|  2> %output
|  3>     printlevel normal
|  4> end
|  5> * xyz 0 1
|  6> C 1.9910610639 1.0039261537 -0.8742349886
|  7> C 1.428875627 -0.3121739899 -0.3633722255
|  8> C 2.4730811285 -1.1168433319 0.3947606872
|  9> S 0.0007804701 -0.0179530763 0.7739824284
| 10> C -1.4519618813 -0.0805470545 -0.3690869789
| 11> C -2.5811174751 -0.8098523592 0.342147438
| 12> C -1.8634914432 1.3197666235 -0.792583187
| 13> H 1.2389490203 1.5619244972 -1.4265950666
| 14> H 2.3287254603 1.6130776796 -0.0389425825
| 15> H 2.8347355247 0.8140111571 -1.5346286461
| 16> H 1.0294721221 -0.9051059915 -1.1901536141
| 17> H 2.0462258633 -2.0492226484 0.7558089263
| 18> H 2.833363477 -0.5498623591 1.2500504514
| 19> H 3.3135486738 -1.3417120931 -0.2578263592
| 20> H -1.1196186918 -0.6597250685 -1.2342578434
| 21> H -3.4384862728 -0.9029734253 -0.3205487888
| 22> H -2.2605558096 -1.8029656734 0.6470684397
| 23> H -2.8811116551 -0.2580500028 1.2300490111
| 24> H -2.1348402905 1.907674116 0.0810913596
| 25> H -2.7205495172 1.2668890473 -1.4607659428
| 26> H -1.0523432965 1.8261480049 -1.3095164599
| 27> *
| 28>
| 29>                          ****END OF INPUT****

CARTESIAN COORDINATES (ANGSTROEM)
---------------------------------
  C      1.991061    1.003926   -0.874235
  C      1.428876   -0.312174   -0.363372
  C      2.473081   -1.116843    0.394761
  S      0.000780   -0.017953    0.773982
  C     -1.451962   -0.080547   -0.369087
  C     -2.581117   -0.809852    0.342147
  C     -1.863491    1.319767   -0.792583
  H      1.238949    1.561924   -1.426595
  H      2.328725    1.613078   -0.038943
  H      2.834736    0.814011   -1.534629
  H      1.029472   -0.905106   -1.190154
  H      2.046226   -2.049223    0.755809
  H      2.833363   -0.549862    1.250050
  H      3.313549   -1.341712   -0.257826
  H     -1.119619   -0.659725   -1.234258
  H     -3.438486   -0.902973   -0.320549
  H     -2.260556   -1.802966    0.647068
  H     -2.881112   -0.258050    1.230049
  H     -2.134840    1.907674    0.081091
  H     -2.720550    1.266889   -1.460766
  H     -1.052343    1.826148   -1.309516

 Total Charge           Charge          ....    0
 Multiplicity           Mult            ....    1
 Number of Electrons    NEL             ....   66
 Basis Dimension        Dim             ....  211

ORBITAL ENERGIES
----------------

  NO   OCC          E(Eh)            E(eV)
   0   2.0000     -88.534047     -2409.1339
   1   2.0000     -10.066455      -273.9222
   2   2.0000     -10.066310      -273.9182
   3   2.0000     -10.022799      -272.7342
   4   2.0000     -10.022405      -272.7235
   5   2.0000     -10.021151      -272.6894
   6   2.0000     -10.020912      -272.6829
   7   2.0000      -7.828401      -213.0216
   8   2.0000      -5.775760      -157.1664
   9   2.0000      -5.772290      -157.0720
  10   2.0000      -5.765003      -156.8737
  11   2.0000      -0.792004       -21.5515
  12   2.0000      -0.760261       -20.6878
  13   2.0000      -0.658680       -17.9236
  14   2.0000      -0.655216       -17.8293
  15   2.0000      -0.648842       -17.6559
  16   2.0000      -0.547422       -14.8961
  17   2.0000      -0.523440       -14.2435
  18   2.0000      -0.443458       -12.0671
  19   2.0000      -0.431990       -11.7551
  20   2.0000      -0.407260       -11.0821
  21   2.0000      -0.393882       -10.7181
  22   2.0000      -0.381555       -10.3826
  23   2.0000      -0.373738       -10.1699
  24   2.0000      -0.359543        -9.7837
  25   2.0000      -0.357803        -9.7363
  26   2.0000      -0.334814        -9.1108
  27   2.0000      -0.322335        -8.7712
  28   2.0000      -0.314622        -8.5613
  29   2.0000      -0.308790        -8.4026
  30   2.0000      -0.290247        -7.8980
  31   2.0000      -0.264381        -7.1942
  32   2.0000      -0.186346        -5.0707
  33   0.0000       0.015470         0.4209
  34   0.0000       0.046739         1.2718
  35   0.0000       0.075088         2.0432
  36   0.0000       0.111862         3.0439
  37   0.0000       0.122265         3.3270

MULLIKEN ATOMIC CHARGES
-----------------------
   0 C :   -0.457665
   1 C :   -0.023391
   2 C :   -0.467530
   3 S :   -0.175559
   4 C :   -0.018121
   5 C :   -0.464196
   6 C :   -0.458468
   7 H :    0.140693
   8 H :    0.156485
   9 H :    0.138543
  10 H :    0.141514
  11 H :    0.161244
  12 H :    0.153568
  13 H :    0.142754
  14 H :    0.139028
  15 H :    0.142105
  16 H :    0.160612
  17 H :    0.152821
  18 H :    0.155404
  19 H :    0.139249
  20 H :    0.140907
Sum of atomic charges:   -0.0000000

LOEWDIN ATOMIC CHARGES
----------------------
   0 C :   -0.420556
   1 C :   -0.287150
   2 C :   -0.420041
   3 S :    0.067057
   4 C :   -0.286880
   5 C :   -0.420305
   6 C :   -0.420725
   7 H :    0.152513
   8 H :    0.159430
   9 H :    0.150524
  10 H :    0.159886
  11 H :    0.160532
  12 H :    0.157806
  13 H :    0.153804
  14 H :    0.160522
  15 H :    0.153280
  16 H :    0.160327
  17 H :    0.157653
  18 H :    0.158954
  19 H :    0.150507
  20 H :    0.152859

  Mayer bond orders larger than 0.100000
B(  0-C ,  1-C ) :   0.9077 B(  0-C ,  7-H ) :   0.9700 B(  0-C ,  8-H ) :   0.9794
B(  0-C ,  9-H ) :   0.9661 B(  1-C ,  2-C ) :   0.9177 B(  1-C ,  3-S ) :   0.9087
B(  1-C , 10-H ) :   0.9440 B(  2-C , 11-H ) :   0.9700 B(  2-C , 12-H ) :   0.9795
B(  2-C , 13-H ) :   0.9674 B(  3-S ,  4-C ) :   0.8957 B(  4-C ,  5-C ) :   0.9184
B(  4-C ,  6-C ) :   0.9155 B(  4-C , 14-H ) :   0.9394 B(  5-C , 15-H ) :   0.9677
B(  5-C , 16-H ) :   0.9702 B(  5-C , 17-H ) :   0.9790 B(  6-C , 18-H ) :   0.9801
B(  6-C , 19-H ) :   0.9676 B(  6-C , 20-H ) :   0.9676

Dispersion correction           -0.006063621
FINAL SINGLE POINT ENERGY      -635.155785468126

DIPOLE MOMENT
-------------

Method             : SCF
Type of density    : Electron Density
Multiplicity       :   1
Irrep              :   0
Energy             :  -635.1627192698515501 Eh
Relativity type    :
Basis              : AO
                                X                 Y                 Z
Electronic contribution:     -0.020931247      -0.623009848       3.863333656
Nuclear contribution   :      0.016409004       0.488466310      -4.534200086
                        -----------------------------------------
Total Dipole Moment    :     -0.004522243      -0.134543538      -0.670866431
                        -----------------------------------------
Magnitude (a.u.)       :      0.684239857
Magnitude (Debye)      :      1.739199500

Rotational constants in cm-1:             0.120663             0.041897             0.034780
Rotational constants in MHz :          3617.399126          1256.032725          1042.679023

                             ****ORCA TERMINATED NORMALLY****
TOTAL RUN TIME: 0 days 0 hours 0 minutes 24 seconds 750 msec
