                         Program Version 6.0.0  -   RELEASE  -
|  1> ! r2scan-3c def2/J RI DEFGRID2 scfconv6 printgap
|  2> %output
|  3>     printlevel normal
|  4> end
|  5> %cpcm
|  6>     smd true
|  7>     smdsolvent "water"
|  8> end
|  9> * xyz 0 1
| 10> C 1.9910610639 1.0039261537 -0.8742349886
| 11> C 1.428875627 -0.3121739899 -0.3633722255
| 12> C 2.4730811285 -1.1168433319 0.3947606872
| 13> S 0.0007804701 -0.0179530763 0.7739824284
| 14> C -1.4519618813 -0.0805470545 -0.3690869789
| 15> C -2.5811174751 -0.8098523592 0.342147438
| 16> C -1.8634914432 1.3197666235 -0.792583187
| 17> H 1.2389490203 1.5619244972 -1.4265950666
| 18> H 2.3287254603 1.6130776796 -0.0389425825
| 19> H 2.8347355247 0.8140111571 -1.5346286461
| 20> H 1.0294721221 -0.9051059915 -1.1901536141
| 21> H 2.0462258633 -2.0492226484 0.7558089263
| 22> H 2.833363477 -0.5498623591 1.2500504514
| 23> H 3.3135486738 -1.3417120931 -0.2578263592
| 24> H -1.1196186918 -0.6597250685 -1.2342578434
| 25> H -3.4384862728 -0.9029734253 -0.3205487888
| 26> H -2.2605558096 -1.8029656734 0.6470684397
| 27> H -2.8811116551 -0.2580500028 1.2300490111
| 28> H -2.1348402905 1.907674116 0.0810913596
| 29> H -2.7205495172 1.2668890473 -1.4607659428
| 30> H -1.0523432965 1.8261480049 -1.3095164599
| 31> *
| 32>
| 33>                          ****END OF INPUT****

CARTESIAN COORDINATES (ANGSTROEM)
---------------------------------
  C      1.991061    1.003926   -0.874235
  C      1.428876   -0.312174   -0.363372
  C      2.473081   -1.116843    0.394761
  S      0.000780   -0.017953    0.773982
  C     -1.451962   -0.080547   -0.369087
  C     -2.581117   -0.809852    0.342147
  C     -1.863491    1.319767   -0.792583
  H      1.238949    1.561924   -1.426595
  H      2.328725    1.613078   -0.038943
  H      2.834736    0.814011   -1.534629
  H      1.029472   -0.905106   -1.190154
  H      2.046226   -2.049223    0.755809
  H      2.833363   -0.549862    1.250050
  H      3.313549   -1.341712   -0.257826
  H     -1.119619   -0.659725   -1.234258
  H     -3.438486   -0.902973   -0.320549
  H     -2.260556   -1.802966    0.647068
  H     -2.881112   -0.258050    1.230049
  H     -2.134840    1.907674    0.081091
  H     -2.720550    1.266889   -1.460766
  H     -1.052343    1.826148   -1.309516

 Total Charge           Charge          ....    0
 Multiplicity           Mult            ....    1
 Number of Electrons    NEL             ....   66
 Basis Dimension        Dim             ....  211

ORBITAL ENERGIES
----------------

  NO   OCC          E(Eh)            E(eV)
   0   2.0000     -88.533157     -2409.1097
   1   2.0000     -10.058246      -273.6988
   2   2.0000     -10.058090      -273.6945
   3   2.0000     -10.014178      -272.4996
   4   2.0000     -10.013889      -272.4918
   5   2.0000     -10.011498      -272.4267
   6   2.0000     -10.011440      -272.4251
   7   2.0000      -7.827597      -212.9997
   8   2.0000      -5.774722      -157.1382
   9   2.0000      -5.771409      -157.0480
  10   2.0000      -5.764559      -156.8616
  11   2.0000      -0.785082       -21.3632
  12   2.0000      -0.751783       -20.4571
  13   2.0000      -0.650309       -17.6958
  14   2.0000      -0.646819       -17.6008
  15   2.0000      -0.643557       -17.5121
  16   2.0000      -0.538936       -14.6652
  17   2.0000      -0.515553       -14.0289
  18   2.0000      -0.435021       -11.8375
  19   2.0000      -0.423131       -11.5140
  20   2.0000      -0.398967       -10.8564
  21   2.0000      -0.385700       -10.4954
  22   2.0000      -0.373406       -10.1609
  23   2.0000      -0.364899        -9.9294
  24   2.0000      -0.350823        -9.5464
  25   2.0000      -0.348863        -9.4930
  26   2.0000      -0.325899        -8.8682
  27   2.0000      -0.314094        -8.5469
  28   2.0000      -0.306364        -8.3366
  29   2.0000      -0.299238        -8.1427
  30   2.0000      -0.282865        -7.6972
  31   2.0000      -0.261696        -7.1211
  32   2.0000      -0.187010        -5.0888
  33   0.0000       0.017777         0.4837
  34   0.0000       0.050799         1.3823
  35   0.0000       0.086320         2.3489
  36   0.0000       0.120445         3.2775
  37   0.0000       0.130892         3.5617

MULLIKEN ATOMIC CHARGES
-----------------------
   0 C :   -0.518178
   1 C :    0.010047
   2 C :   -0.508933
   3 S :   -0.249295
   4 C :    0.017750
   5 C :   -0.508291
   6 C :   -0.520505
   7 H :    0.160796
   8 H :    0.163272
   9 H :    0.156099
  10 H :    0.168730
  11 H :    0.164117
  12 H :    0.164579
  13 H :    0.162644
  14 H :    0.167163
  15 H :    0.161840
  16 H :    0.163826
  17 H :    0.164301
  18 H :    0.163091
  19 H :    0.156768
  20 H :    0.160177
Sum of atomic charges:    0.0000000

LOEWDIN ATOMIC CHARGES
----------------------
   0 C :   -0.428207
   1 C :   -0.280115
   2 C :   -0.427606
   3 S :    0.028484
   4 C :   -0.279715
   5 C :   -0.427991
   6 C :   -0.428669
   7 H :    0.157251
   8 H :    0.158797
   9 H :    0.156889
  10 H :    0.169746
  11 H :    0.159404
  12 H :    0.159176
  13 H :    0.160807
  14 H :    0.170631
  15 H :    0.160232
  16 H :    0.159252
  17 H :    0.159069
  18 H :    0.158495
  19 H :    0.156912
  20 H :    0.157155

  Mayer bond orders larger than 0.100000
B(  0-C ,  1-C ) :   0.8935 B(  0-C ,  7-H ) :   0.9681 B(  0-C ,  8-H ) :   0.9809
B(  0-C ,  9-H ) :   0.9619 B(  1-C ,  2-C ) :   0.9038 B(  1-C ,  3-S ) :   0.8941
B(  1-C , 10-H ) :   0.9407 B(  2-C , 11-H ) :   0.9698 B(  2-C , 12-H ) :   0.9779
B(  2-C , 13-H ) :   0.9629 B(  3-S ,  4-C ) :   0.8794 B(  4-C ,  5-C ) :   0.9043
B(  4-C ,  6-C ) :   0.8989 B(  4-C , 14-H ) :   0.9364 B(  5-C , 15-H ) :   0.9633
B(  5-C , 16-H ) :   0.9702 B(  5-C , 17-H ) :   0.9777 B(  6-C , 18-H ) :   0.9816
B(  6-C , 19-H ) :   0.9631 B(  6-C , 20-H ) :   0.9666

Dispersion correction           -0.006063621
FINAL SINGLE POINT ENERGY      -635.156602770621

DIPOLE MOMENT
-------------

Method             : SCF
Type of density    : Electron Density
Multiplicity       :   1
Irrep              :   0
Energy             :  -635.1635365723470841 Eh
Relativity type    :
Basis              : AO
                                X                 Y                 Z
Electronic contribution:     -0.024471490      -0.678506208       3.502690900
Nuclear contribution   :      0.016409004       0.488466310      -4.534200086
                        -----------------------------------------
Total Dipole Moment    :     -0.008062486      -0.190039897      -1.031509187
                        -----------------------------------------
Magnitude (a.u.)       :      1.048900076
Magnitude (Debye)      :      2.666092115

Rotational constants in cm-1:             0.120663             0.041897             0.034780
Rotational constants in MHz :          3617.399126          1256.032725          1042.679023

                             ****ORCA TERMINATED NORMALLY****
TOTAL RUN TIME: 0 days 0 hours 0 minutes 29 seconds 257 msec
