                         Program Version 6.0.0  -   RELEASE  -
|  1> ! pbe def2-sv(p) def2/J RI DEFGRID1 loosescf d4 GCP(DFT/SV(P)) printgap
|  2> %output
|  3>     printlevel normal
|  4> end
|  5> * xyz 0 1
|  6> C -1.7941825447 -1.1940938675 -0.5812003391
|  7> C -2.3651301512 -0.0620474851 0.263867486
|  8> C -1.3239210624 0.6141750164 1.1554641753
|  9> C -0.2596473809 1.3852867452 0.3671704415
| 10> C 0.7800343968 0.5142486317 -0.2881288255
| 11> O 1.1765712489 0.6631681012 -1.4280377416
| 12> O 1.2521727767 -0.4094395918 0.5382537955
| 13> C 2.2714264765 -1.2987145871 0.0767567586
| 14> H -2.5866884554 -1.6839247309 -1.1418675346
| 15> H -1.0631601742 -0.8186359001 -1.2943786124
| 16> H -1.3110688455 -1.935533855 0.0514847547
| 17> H -2.8175268962 0.6847339403 -0.3920957324
| 18> H -3.1539707578 -0.4638429881 0.9030015112
| 19> H -0.8335059508 -0.1318421046 1.7816212934
| 20> H -1.8365772819 1.3218587501 1.8083845055
| 21> H 0.2837190655 2.0397089003 1.0525364482
| 22> H -0.7171326221 2.0018313075 -0.4073243017
| 23> H 3.1988550524 -1.0527617236 0.592111479
| 24> H 2.4002397493 -1.1896661365 -1.0007207958
| 25> H 1.9562155201 -2.3092850738 0.3271553867
| 26> *
| 27>
| 28>                          ****END OF INPUT****

CARTESIAN COORDINATES (ANGSTROEM)
---------------------------------
  C     -1.794183   -1.194094   -0.581200
  C     -2.365130   -0.062047    0.263867
  C     -1.323921    0.614175    1.155464
  C     -0.259647    1.385287    0.367170
  C      0.780034    0.514249   -0.288129
  O      1.176571    0.663168   -1.428038
  O      1.252173   -0.409440    0.538254
  C      2.271426   -1.298715    0.076757
  H     -2.586688   -1.683925   -1.141868
  H     -1.063160   -0.818636   -1.294379
  H     -1.311069   -1.935534    0.051485
  H     -2.817527    0.684734   -0.392096
  H     -3.153971   -0.463843    0.903002
  H     -0.833506   -0.131842    1.781621
  H     -1.836577    1.321859    1.808385
  H      0.283719    2.039709    1.052536
  H     -0.717133    2.001831   -0.407324
  H      3.198855   -1.052762    0.592111
  H      2.400240   -1.189666   -1.000721
  H      1.956216   -2.309285    0.327155

 Total Charge           Charge          ....    0
 Multiplicity           Mult            ....    1
 Number of Electrons    NEL             ....   64
 Basis Dimension        Dim             ....  136

ORBITAL ENERGIES
----------------

  NO   OCC          E(Eh)            E(eV)
   0   2.0000     -18.800962      -511.6002
   1   2.0000     -18.729614      -509.6587
   2   2.0000     -10.006400      -272.2880
   3   2.0000      -9.940997      -270.5083
   4   2.0000      -9.897783      -269.3324
   5   2.0000      -9.889717      -269.1129
   6   2.0000      -9.885641      -269.0020
   7   2.0000      -9.873443      -268.6700
   8   2.0000      -1.005930       -27.3728
   9   2.0000      -0.907247       -24.6874
  10   2.0000      -0.733260       -19.9530
  11   2.0000      -0.682801       -18.5800
  12   2.0000      -0.644745       -17.5444
  13   2.0000      -0.587060       -15.9747
  14   2.0000      -0.517276       -14.0758
  15   2.0000      -0.506985       -13.7958
  16   2.0000      -0.451535       -12.2869
  17   2.0000      -0.443421       -12.0661
  18   2.0000      -0.414365       -11.2755
  19   2.0000      -0.408170       -11.1069
  20   2.0000      -0.391286       -10.6474
  21   2.0000      -0.374646       -10.1946
  22   2.0000      -0.361628        -9.8404
  23   2.0000      -0.354433        -9.6446
  24   2.0000      -0.339241        -9.2312
  25   2.0000      -0.324573        -8.8321
  26   2.0000      -0.303051        -8.2464
  27   2.0000      -0.295235        -8.0338
  28   2.0000      -0.285919        -7.7803
  29   2.0000      -0.281370        -7.6565
  30   2.0000      -0.255395        -6.9496
  31   2.0000      -0.214939        -5.8488
  32   0.0000      -0.018920        -0.5149
  33   0.0000       0.034380         0.9355
  34   0.0000       0.052032         1.4159
  35   0.0000       0.073752         2.0069
  36   0.0000       0.079067         2.1515

MULLIKEN ATOMIC CHARGES
-----------------------
   0 C :   -0.297798
   1 C :   -0.177646
   2 C :   -0.178992
   3 C :   -0.125147
   4 C :    0.076870
   5 O :   -0.201543
   6 O :   -0.244526
   7 C :   -0.128760
   8 H :    0.103598
   9 H :    0.131482
  10 H :    0.093683
  11 H :    0.084699
  12 H :    0.087273
  13 H :    0.100594
  14 H :    0.085495
  15 H :    0.114971
  16 H :    0.098785
  17 H :    0.121777
  18 H :    0.133744
  19 H :    0.121441
Sum of atomic charges:   -0.0000000

LOEWDIN ATOMIC CHARGES
----------------------
   0 C :   -0.350113
   1 C :   -0.232148
   2 C :   -0.227444
   3 C :   -0.240966
   4 C :    0.031155
   5 O :   -0.173473
   6 O :   -0.072014
   7 C :   -0.208529
   8 H :    0.120557
   9 H :    0.123703
  10 H :    0.116368
  11 H :    0.115236
  12 H :    0.116445
  13 H :    0.120005
  14 H :    0.118688
  15 H :    0.144469
  16 H :    0.133720
  17 H :    0.120098
  18 H :    0.124653
  19 H :    0.119590

  Mayer bond orders larger than 0.100000
B(  0-C ,  1-C ) :   1.1771 B(  0-C ,  8-H ) :   0.9475 B(  0-C ,  9-H ) :   0.9288
B(  0-C , 10-H ) :   0.9506 B(  1-C ,  2-C ) :   1.1238 B(  1-C , 11-H ) :   0.9236
B(  1-C , 12-H ) :   0.9247 B(  2-C ,  3-C ) :   1.1042 B(  2-C , 13-H ) :   0.9168
B(  2-C , 14-H ) :   0.9182 B(  3-C ,  4-C ) :   1.0435 B(  3-C , 15-H ) :   0.8889
B(  3-C , 16-H ) :   0.9098 B(  4-C ,  5-O ) :   2.0560 B(  4-C ,  6-O ) :   1.1892
B(  6-O ,  7-C ) :   0.9389 B(  7-C , 17-H ) :   0.9608 B(  7-C , 18-H ) :   0.9288
B(  7-C , 19-H ) :   0.9590

Dispersion correction           -0.016325773
FINAL SINGLE POINT ENERGY      -385.450148073208

DIPOLE MOMENT
-------------

Method             : SCF
Type of density    : Electron Density
Multiplicity       :   1
Irrep              :   0
Energy             :  -385.5256530048748118 Eh
Relativity type    :
Basis              : AO
                                X                 Y                 Z
Electronic contribution:      6.020753748       2.963168823      -1.430465517
Nuclear contribution   :     -6.043870784      -3.314870664       2.125740274
                        -----------------------------------------
Total Dipole Moment    :     -0.023117036      -0.351701841       0.695274757
                        -----------------------------------------
Magnitude (a.u.)       :      0.779509827
Magnitude (Debye)      :      1.981356519

Rotational constants in cm-1:             0.098499             0.045279             0.041568
Rotational constants in MHz :          2952.926799          1357.443350          1246.168019

                             ****ORCA TERMINATED NORMALLY****
TOTAL RUN TIME: 0 days 0 hours 0 minutes 10 seconds 771 msec
