                         Program Version 6.0.0  -   RELEASE  -
|  1> ! r2scan-3c def2/J RI DEFGRID2 scfconv6 printgap
|  2> %output
|  3>     printlevel normal
|  4> end
|  5> * xyz 0 1
|  6> C 2.9003715087 -0.6567349982 -0.5425614004
|  7> C 2.423363562 0.2871318839 0.5558467494
|  8> C 0.9063921247 0.2738017939 0.7462745767
|  9> C 0.1485055406 0.8528959457 -0.4474686264
| 10> C -1.345093659 0.9497347394 -0.1966858303
| 11> Cl -2.0849071818 -0.6840864223 -0.0292797914
| 12> H 2.5481849068 -0.3335525895 -1.5182747145
| 13> H 2.5357171945 -1.6653852452 -0.3607527813
| 14> H 3.9870411223 -0.6849407619 -0.5682351331
| 15> H 2.8904874398 -0.0066755738 1.498269209
| 16> H 2.7495167655 1.3040333758 0.3279290122
| 17> H 0.6593118091 0.8583877402 1.6355461529
| 18> H 0.5738113309 -0.7515230063 0.9210310601
| 19> H 0.3231763433 0.2418652536 -1.3331124637
| 20> H 0.5110976424 1.862757358 -0.6510757531
| 21> H -1.5640379911 1.4736132507 0.7322478231
| 22> H -1.8614179218 1.4241986792 -1.0289227887
| 23> *
| 24>
| 25>                          ****END OF INPUT****

CARTESIAN COORDINATES (ANGSTROEM)
---------------------------------
  C      2.900372   -0.656735   -0.542561
  C      2.423364    0.287132    0.555847
  C      0.906392    0.273802    0.746275
  C      0.148506    0.852896   -0.447469
  C     -1.345094    0.949735   -0.196686
  Cl    -2.084907   -0.684086   -0.029280
  H      2.548185   -0.333553   -1.518275
  H      2.535717   -1.665385   -0.360753
  H      3.987041   -0.684941   -0.568235
  H      2.890487   -0.006676    1.498269
  H      2.749517    1.304033    0.327929
  H      0.659312    0.858388    1.635546
  H      0.573811   -0.751523    0.921031
  H      0.323176    0.241865   -1.333112
  H      0.511098    1.862757   -0.651076
  H     -1.564038    1.473613    0.732248
  H     -1.861418    1.424199   -1.028923

 Total Charge           Charge          ....    0
 Multiplicity           Mult            ....    1
 Number of Electrons    NEL             ....   58
 Basis Dimension        Dim             ....  177

ORBITAL ENERGIES
----------------

  NO   OCC          E(Eh)            E(eV)
   0   2.0000    -101.196854     -2753.7064
   1   2.0000     -10.091579      -274.6058
   2   2.0000     -10.040772      -273.2233
   3   2.0000     -10.028346      -272.8852
   4   2.0000     -10.028019      -272.8763
   5   2.0000     -10.018015      -272.6040
   6   2.0000      -9.352896      -254.5052
   7   2.0000      -7.099044      -193.1748
   8   2.0000      -7.089015      -192.9019
   9   2.0000      -7.088923      -192.8994
  10   2.0000      -0.821899       -22.3650
  11   2.0000      -0.766025       -20.8446
  12   2.0000      -0.708968       -19.2920
  13   2.0000      -0.642484       -17.4829
  14   2.0000      -0.580687       -15.8013
  15   2.0000      -0.538741       -14.6599
  16   2.0000      -0.453094       -12.3293
  17   2.0000      -0.430998       -11.7281
  18   2.0000      -0.423425       -11.5220
  19   2.0000      -0.405850       -11.0438
  20   2.0000      -0.371972       -10.1219
  21   2.0000      -0.363617        -9.8945
  22   2.0000      -0.349296        -9.5048
  23   2.0000      -0.329254        -8.9595
  24   2.0000      -0.303558        -8.2602
  25   2.0000      -0.301212        -8.1964
  26   2.0000      -0.295115        -8.0305
  27   2.0000      -0.263757        -7.1772
  28   2.0000      -0.260420        -7.0864
  29   0.0000       0.009137         0.2486
  30   0.0000       0.089055         2.4233
  31   0.0000       0.095883         2.6091
  32   0.0000       0.114130         3.1056
  33   0.0000       0.128268         3.4904

MULLIKEN ATOMIC CHARGES
-----------------------
   0 C :   -0.485375
   1 C :   -0.219064
   2 C :   -0.269235
   3 C :   -0.299564
   4 C :   -0.146172
   5 Cl:   -0.211865
   6 H :    0.145738
   7 H :    0.147975
   8 H :    0.146903
   9 H :    0.144503
  10 H :    0.129149
  11 H :    0.137819
  12 H :    0.160519
  13 H :    0.159297
  14 H :    0.144961
  15 H :    0.150958
  16 H :    0.163455
Sum of atomic charges:    0.0000000

LOEWDIN ATOMIC CHARGES
----------------------
   0 C :   -0.426319
   1 C :   -0.316318
   2 C :   -0.318265
   3 C :   -0.327875
   4 C :   -0.316428
   5 Cl:   -0.008440
   6 H :    0.148035
   7 H :    0.152264
   8 H :    0.151362
   9 H :    0.153274
  10 H :    0.150239
  11 H :    0.155247
  12 H :    0.162458
  13 H :    0.163450
  14 H :    0.162303
  15 H :    0.157780
  16 H :    0.157233

  Mayer bond orders larger than 0.100000
B(  0-C ,  1-C ) :   0.8947 B(  0-C ,  6-H ) :   0.9841 B(  0-C ,  7-H ) :   0.9797
B(  0-C ,  8-H ) :   0.9694 B(  1-C ,  2-C ) :   0.9047 B(  1-C ,  9-H ) :   0.9716
B(  1-C , 10-H ) :   0.9822 B(  2-C ,  3-C ) :   0.9159 B(  2-C , 11-H ) :   0.9699
B(  2-C , 12-H ) :   0.9728 B(  3-C ,  4-C ) :   0.9421 B(  3-C , 13-H ) :   0.9654
B(  3-C , 14-H ) :   0.9565 B(  4-C ,  5-Cl) :   0.9662 B(  4-C , 15-H ) :   0.9688
B(  4-C , 16-H ) :   0.9585

Dispersion correction           -0.004370014
FINAL SINGLE POINT ENERGY      -657.267864654299

DIPOLE MOMENT
-------------

Method             : SCF
Type of density    : Electron Density
Multiplicity       :   1
Irrep              :   0
Energy             :  -657.2737699461437160 Eh
Relativity type    :
Basis              : AO
                                X                 Y                 Z
Electronic contribution:    -14.830229712      -3.718017259       0.235193637
Nuclear contribution   :     15.325630699       4.410777510      -0.284697116
                        -----------------------------------------
Total Dipole Moment    :      0.495400987       0.692760251      -0.049503480
                        -----------------------------------------
Magnitude (a.u.)       :      0.853105796
Magnitude (Debye)      :      2.168422606

Rotational constants in cm-1:             0.196682             0.038343             0.036044
Rotational constants in MHz :          5896.383937          1149.490709          1080.565911

                             ****ORCA TERMINATED NORMALLY****
TOTAL RUN TIME: 0 days 0 hours 0 minutes 19 seconds 521 msec
