                         Program Version 6.0.0  -   RELEASE  -
|  1> ! r2scan-3c def2/J RI DEFGRID2 scfconv6 printgap
|  2> %output
|  3>     printlevel normal
|  4> end
|  5> %cpcm
|  6>     smd true
|  7>     smdsolvent "water"
|  8> end
|  9> * xyz 0 1
| 10> C 2.9003715087 -0.6567349982 -0.5425614004
| 11> C 2.423363562 0.2871318839 0.5558467494
| 12> C 0.9063921247 0.2738017939 0.7462745767
| 13> C 0.1485055406 0.8528959457 -0.4474686264
| 14> C -1.345093659 0.9497347394 -0.1966858303
| 15> Cl -2.0849071818 -0.6840864223 -0.0292797914
| 16> H 2.5481849068 -0.3335525895 -1.5182747145
| 17> H 2.5357171945 -1.6653852452 -0.3607527813
| 18> H 3.9870411223 -0.6849407619 -0.5682351331
| 19> H 2.8904874398 -0.0066755738 1.498269209
| 20> H 2.7495167655 1.3040333758 0.3279290122
| 21> H 0.6593118091 0.8583877402 1.6355461529
| 22> H 0.5738113309 -0.7515230063 0.9210310601
| 23> H 0.3231763433 0.2418652536 -1.3331124637
| 24> H 0.5110976424 1.862757358 -0.6510757531
| 25> H -1.5640379911 1.4736132507 0.7322478231
| 26> H -1.8614179218 1.4241986792 -1.0289227887
| 27> *
| 28>
| 29>                          ****END OF INPUT****

CARTESIAN COORDINATES (ANGSTROEM)
---------------------------------
  C      2.900372   -0.656735   -0.542561
  C      2.423364    0.287132    0.555847
  C      0.906392    0.273802    0.746275
  C      0.148506    0.852896   -0.447469
  C     -1.345094    0.949735   -0.196686
  Cl    -2.084907   -0.684086   -0.029280
  H      2.548185   -0.333553   -1.518275
  H      2.535717   -1.665385   -0.360753
  H      3.987041   -0.684941   -0.568235
  H      2.890487   -0.006676    1.498269
  H      2.749517    1.304033    0.327929
  H      0.659312    0.858388    1.635546
  H      0.573811   -0.751523    0.921031
  H      0.323176    0.241865   -1.333112
  H      0.511098    1.862757   -0.651076
  H     -1.564038    1.473613    0.732248
  H     -1.861418    1.424199   -1.028923

 Total Charge           Charge          ....    0
 Multiplicity           Mult            ....    1
 Number of Electrons    NEL             ....   58
 Basis Dimension        Dim             ....  177

ORBITAL ENERGIES
----------------

  NO   OCC          E(Eh)            E(eV)
   0   2.0000    -101.197376     -2753.7206
   1   2.0000     -10.080257      -274.2977
   2   2.0000     -10.026454      -272.8337
   3   2.0000     -10.016544      -272.5640
   4   2.0000     -10.016164      -272.5537
   5   2.0000     -10.006719      -272.2967
   6   2.0000      -9.353814      -254.5302
   7   2.0000      -7.099550      -193.1886
   8   2.0000      -7.090103      -192.9315
   9   2.0000      -7.090011      -192.9290
  10   2.0000      -0.817184       -22.2367
  11   2.0000      -0.755923       -20.5697
  12   2.0000      -0.698936       -19.0190
  13   2.0000      -0.631955       -17.1964
  14   2.0000      -0.569149       -15.4873
  15   2.0000      -0.526887       -14.3373
  16   2.0000      -0.440716       -11.9925
  17   2.0000      -0.419384       -11.4120
  18   2.0000      -0.412616       -11.2278
  19   2.0000      -0.394653       -10.7391
  20   2.0000      -0.364687        -9.9236
  21   2.0000      -0.352795        -9.6000
  22   2.0000      -0.337273        -9.1777
  23   2.0000      -0.317971        -8.6524
  24   2.0000      -0.293076        -7.9750
  25   2.0000      -0.290250        -7.8981
  26   2.0000      -0.283512        -7.7148
  27   2.0000      -0.264074        -7.1858
  28   2.0000      -0.259126        -7.0512
  29   0.0000       0.014101         0.3837
  30   0.0000       0.101881         2.7723
  31   0.0000       0.108772         2.9598
  32   0.0000       0.125461         3.4140
  33   0.0000       0.138295         3.7632

MULLIKEN ATOMIC CHARGES
-----------------------
   0 C :   -0.526454
   1 C :   -0.230299
   2 C :   -0.287616
   3 C :   -0.305338
   4 C :   -0.162455
   5 Cl:   -0.260224
   6 H :    0.159593
   7 H :    0.154800
   8 H :    0.155603
   9 H :    0.151269
  10 H :    0.141342
  11 H :    0.153815
  12 H :    0.154424
  13 H :    0.168842
  14 H :    0.167063
  15 H :    0.177651
  16 H :    0.187983
Sum of atomic charges:   -0.0000000

LOEWDIN ATOMIC CHARGES
----------------------
   0 C :   -0.435406
   1 C :   -0.318368
   2 C :   -0.321441
   3 C :   -0.325884
   4 C :   -0.310638
   5 Cl:   -0.041322
   6 H :    0.151682
   7 H :    0.152925
   8 H :    0.152815
   9 H :    0.154281
  10 H :    0.153887
  11 H :    0.159372
  12 H :    0.158044
  13 H :    0.164875
  14 H :    0.171871
  15 H :    0.167006
  16 H :    0.166302

  Mayer bond orders larger than 0.100000
B(  0-C ,  1-C ) :   0.8854 B(  0-C ,  6-H ) :   0.9801 B(  0-C ,  7-H ) :   0.9790
B(  0-C ,  8-H ) :   0.9675 B(  1-C ,  2-C ) :   0.8986 B(  1-C ,  9-H ) :   0.9730
B(  1-C , 10-H ) :   0.9817 B(  2-C ,  3-C ) :   0.9066 B(  2-C , 11-H ) :   0.9696
B(  2-C , 12-H ) :   0.9760 B(  3-C ,  4-C ) :   0.9340 B(  3-C , 13-H ) :   0.9680
B(  3-C , 14-H ) :   0.9502 B(  4-C ,  5-Cl) :   0.9297 B(  4-C , 15-H ) :   0.9643
B(  4-C , 16-H ) :   0.9520

Dispersion correction           -0.004370014
FINAL SINGLE POINT ENERGY      -657.269183718178

DIPOLE MOMENT
-------------

Method             : SCF
Type of density    : Electron Density
Multiplicity       :   1
Irrep              :   0
Energy             :  -657.2750890100224979 Eh
Relativity type    :
Basis              : AO
                                X                 Y                 Z
Electronic contribution:    -14.734412587      -3.417903223       0.197893936
Nuclear contribution   :     15.325630699       4.410777510      -0.284697116
                        -----------------------------------------
Total Dipole Moment    :      0.591218112       0.992874287      -0.086803181
                        -----------------------------------------
Magnitude (a.u.)       :      1.158823972
Magnitude (Debye)      :      2.945496455

Rotational constants in cm-1:             0.196682             0.038343             0.036044
Rotational constants in MHz :          5896.383937          1149.490709          1080.565911

                             ****ORCA TERMINATED NORMALLY****
TOTAL RUN TIME: 0 days 0 hours 0 minutes 25 seconds 187 msec
