                         Program Version 6.0.0  -   RELEASE  -
|  1> ! pbe def2-sv(p) def2/J RI DEFGRID1 loosescf d4 GCP(DFT/SV(P)) printgap
|  2> %output
|  3>     printlevel normal
|  4> end
|  5> * xyz 0 1
|  6> C 3.8377111289 -0.2828557822 -0.2984877239
|  7> C 2.5233816872 -0.2316755599 0.4716598065
|  8> C 1.326458469 -0.0754982222 -0.4642573578
|  9> C 0.008334278 -0.0225251935 0.3093220342
| 10> C -1.1658003977 0.1357543647 -0.6395084128
| 11> Cl -2.7170986614 0.1975569241 0.269720473
| 12> H 4.6759773074 -0.3931336876 0.3846652548
| 13> H 3.9792964711 0.6303453519 -0.8718042754
| 14> H 3.8430192144 -1.1239588579 -0.987778642
| 15> H 2.4084049846 -1.1476564965 1.0546623354
| 16> H 2.5455470772 0.6057986776 1.1718686376
| 17> H 1.3033809394 -0.9139867819 -1.1628789572
| 18> H 1.4418655329 0.8404238057 -1.0468659082
| 19> H 0.0264062315 0.8158701931 1.0078996324
| 20> H -0.1138450863 -0.9390227261 0.8892335632
| 21> H -1.1061622713 1.0665725769 -1.2008643911
| 22> H -1.24771824 -0.7083778691 -1.321980981
| 23> *
| 24>
| 25>                          ****END OF INPUT****

CARTESIAN COORDINATES (ANGSTROEM)
---------------------------------
  C      3.837711   -0.282856   -0.298488
  C      2.523382   -0.231676    0.471660
  C      1.326458   -0.075498   -0.464257
  C      0.008334   -0.022525    0.309322
  C     -1.165800    0.135754   -0.639508
  Cl    -2.717099    0.197557    0.269720
  H      4.675977   -0.393134    0.384665
  H      3.979296    0.630345   -0.871804
  H      3.843019   -1.123959   -0.987779
  H      2.408405   -1.147656    1.054662
  H      2.545547    0.605799    1.171869
  H      1.303381   -0.913987   -1.162879
  H      1.441866    0.840424   -1.046866
  H      0.026406    0.815870    1.007900
  H     -0.113845   -0.939023    0.889234
  H     -1.106162    1.066573   -1.200864
  H     -1.247718   -0.708378   -1.321981

 Total Charge           Charge          ....    0
 Multiplicity           Mult            ....    1
 Number of Electrons    NEL             ....   58
 Basis Dimension        Dim             ....  110

ORBITAL ENERGIES
----------------

  NO   OCC          E(Eh)            E(eV)
   0   2.0000    -100.612153     -2737.7959
   1   2.0000      -9.938408      -270.4378
   2   2.0000      -9.894036      -269.2304
   3   2.0000      -9.891923      -269.1729
   4   2.0000      -9.888893      -269.0905
   5   2.0000      -9.876675      -268.7580
   6   2.0000      -9.148011      -248.9300
   7   2.0000      -6.979578      -189.9240
   8   2.0000      -6.967696      -189.6007
   9   2.0000      -6.967586      -189.5976
  10   2.0000      -0.772957       -21.0332
  11   2.0000      -0.724887       -19.7252
  12   2.0000      -0.669327       -18.2133
  13   2.0000      -0.596593       -16.2341
  14   2.0000      -0.536909       -14.6100
  15   2.0000      -0.523285       -14.2393
  16   2.0000      -0.446250       -12.1431
  17   2.0000      -0.408748       -11.1226
  18   2.0000      -0.399416       -10.8687
  19   2.0000      -0.383475       -10.4349
  20   2.0000      -0.359699        -9.7879
  21   2.0000      -0.355994        -9.6871
  22   2.0000      -0.329772        -8.9735
  23   2.0000      -0.309441        -8.4203
  24   2.0000      -0.298782        -8.1303
  25   2.0000      -0.293646        -7.9905
  26   2.0000      -0.292197        -7.9511
  27   2.0000      -0.240782        -6.5520
  28   2.0000      -0.239658        -6.5214
  29   0.0000       0.010848         0.2952
  30   0.0000       0.035531         0.9668
  31   0.0000       0.054636         1.4867
  32   0.0000       0.057178         1.5559
  33   0.0000       0.068578         1.8661

MULLIKEN ATOMIC CHARGES
-----------------------
   0 C :   -0.258010
   1 C :   -0.176146
   2 C :   -0.207621
   3 C :   -0.138230
   4 C :   -0.157812
   5 Cl:   -0.155534
   6 H :    0.104243
   7 H :    0.097984
   8 H :    0.098004
   9 H :    0.086913
  10 H :    0.086789
  11 H :    0.083586
  12 H :    0.083722
  13 H :    0.094408
  14 H :    0.094682
  15 H :    0.131521
  16 H :    0.131500
Sum of atomic charges:    0.0000000

LOEWDIN ATOMIC CHARGES
----------------------
   0 C :   -0.339472
   1 C :   -0.231613
   2 C :   -0.227266
   3 C :   -0.247996
   4 C :   -0.270853
   5 Cl:    0.014592
   6 H :    0.119942
   7 H :    0.117089
   8 H :    0.117105
   9 H :    0.115828
  10 H :    0.115804
  11 H :    0.114689
  12 H :    0.114687
  13 H :    0.120449
  14 H :    0.120500
  15 H :    0.123257
  16 H :    0.123257

  Mayer bond orders larger than 0.100000
B(  0-C ,  1-C ) :   1.1574 B(  0-C ,  6-H ) :   0.9526 B(  0-C ,  7-H ) :   0.9546
B(  0-C ,  8-H ) :   0.9546 B(  1-C ,  2-C ) :   1.1354 B(  1-C ,  9-H ) :   0.9258
B(  1-C , 10-H ) :   0.9258 B(  2-C ,  3-C ) :   1.1159 B(  2-C , 11-H ) :   0.9224
B(  2-C , 12-H ) :   0.9225 B(  3-C ,  4-C ) :   1.1109 B(  3-C , 13-H ) :   0.9172
B(  3-C , 14-H ) :   0.9173 B(  4-C ,  5-Cl) :   1.0387 B(  4-C , 15-H ) :   0.9274
B(  4-C , 16-H ) :   0.9275

Dispersion correction           -0.012250863
FINAL SINGLE POINT ENERGY      -656.512752746625

DIPOLE MOMENT
-------------

Method             : SCF
Type of density    : Electron Density
Multiplicity       :   1
Irrep              :   0
Energy             :  -656.5706978609889575 Eh
Relativity type    :
Basis              : AO
                                X                 Y                 Z
Electronic contribution:    -19.560757068       1.414685290       2.021935067
Nuclear contribution   :     20.305182478      -1.453939258      -2.317016321
                        -----------------------------------------
Total Dipole Moment    :      0.744425409      -0.039253968      -0.295081254
                        -----------------------------------------
Magnitude (a.u.)       :      0.801737495
Magnitude (Debye)      :      2.037854761

Rotational constants in cm-1:             0.497452             0.026468             0.025735
Rotational constants in MHz :         14913.242372           793.487334           771.517292

                             ****ORCA TERMINATED NORMALLY****
TOTAL RUN TIME: 0 days 0 hours 0 minutes 7 seconds 51 msec
