                         Program Version 6.0.0  -   RELEASE  -
|  1> ! r2scan-3c def2/J RI DEFGRID2 scfconv6 printgap
|  2> %output
|  3>     printlevel normal
|  4> end
|  5> * xyz 0 1
|  6> C -2.7384549626 -1.175829319 -0.0695499307
|  7> C -2.5243230556 0.332732482 -0.0390115962
|  8> C -1.2299529324 0.7024979465 0.6877574997
|  9> C -0.0140840003 0.2633818938 -0.0879391075
| 10> O 0.1158948265 0.3531575041 -1.2906583842
| 11> O 0.9163390248 -0.2394748912 0.7162564701
| 12> C 2.1629574973 -0.6652234727 0.1409906642
| 13> C 3.1326792824 0.4984865433 0.0037928618
| 14> H -3.6688348296 -1.4165320493 -0.5767099721
| 15> H -1.923208798 -1.6623418074 -0.6018761498
| 16> H -2.7797465952 -1.5775345344 0.9401363205
| 17> H -3.3633289092 0.8119589718 0.4658585194
| 18> H -2.4718083945 0.7145570952 -1.0602506715
| 19> H -1.1878644554 0.2548150812 1.6802046379
| 20> H -1.1644731766 1.7878817392 0.7903347582
| 21> H 2.540818738 -1.4177610838 0.8335706992
| 22> H 1.9605797391 -1.1144598703 -0.8361679301
| 23> H 4.0852217062 0.1312144824 -0.3638684985
| 24> H 2.7404866485 1.2290098158 -0.700317996
| 25> H 3.2799197439 0.9783875259 0.9675373625
| 26> *
| 27>
| 28>                          ****END OF INPUT****

CARTESIAN COORDINATES (ANGSTROEM)
---------------------------------
  C     -2.738455   -1.175829   -0.069550
  C     -2.524323    0.332732   -0.039012
  C     -1.229953    0.702498    0.687757
  C     -0.014084    0.263382   -0.087939
  O      0.115895    0.353158   -1.290658
  O      0.916339   -0.239475    0.716256
  C      2.162957   -0.665223    0.140991
  C      3.132679    0.498487    0.003793
  H     -3.668835   -1.416532   -0.576710
  H     -1.923209   -1.662342   -0.601876
  H     -2.779747   -1.577535    0.940136
  H     -3.363329    0.811959    0.465859
  H     -2.471808    0.714557   -1.060251
  H     -1.187864    0.254815    1.680205
  H     -1.164473    1.787882    0.790335
  H      2.540819   -1.417761    0.833571
  H      1.960580   -1.114460   -0.836168
  H      4.085222    0.131214   -0.363868
  H      2.740487    1.229010   -0.700318
  H      3.279920    0.978388    0.967537

 Total Charge           Charge          ....    0
 Multiplicity           Mult            ....    1
 Number of Electrons    NEL             ....   64
 Basis Dimension        Dim             ....  222

ORBITAL ENERGIES
----------------

  NO   OCC          E(Eh)            E(eV)
   0   2.0000     -18.996294      -516.9154
   1   2.0000     -18.928251      -515.0639
   2   2.0000     -10.151802      -276.2446
   3   2.0000     -10.090686      -274.5815
   4   2.0000     -10.040591      -273.2184
   5   2.0000     -10.031317      -272.9660
   6   2.0000     -10.028447      -272.8879
   7   2.0000     -10.017262      -272.5836
   8   2.0000      -1.070815       -29.1384
   9   2.0000      -0.975827       -26.5536
  10   2.0000      -0.771687       -20.9987
  11   2.0000      -0.738997       -20.1091
  12   2.0000      -0.677452       -18.4344
  13   2.0000      -0.624002       -16.9800
  14   2.0000      -0.564496       -15.3607
  15   2.0000      -0.518040       -14.0966
  16   2.0000      -0.473795       -12.8926
  17   2.0000      -0.455572       -12.3968
  18   2.0000      -0.441332       -12.0092
  19   2.0000      -0.418909       -11.3991
  20   2.0000      -0.410206       -11.1623
  21   2.0000      -0.389365       -10.5952
  22   2.0000      -0.377503       -10.2724
  23   2.0000      -0.364397        -9.9158
  24   2.0000      -0.350223        -9.5300
  25   2.0000      -0.343017        -9.3340
  26   2.0000      -0.315797        -8.5933
  27   2.0000      -0.309331        -8.4173
  28   2.0000      -0.307185        -8.3589
  29   2.0000      -0.303081        -8.2472
  30   2.0000      -0.271502        -7.3879
  31   2.0000      -0.236782        -6.4432
  32   0.0000      -0.014897        -0.4054
  33   0.0000       0.075275         2.0483
  34   0.0000       0.092591         2.5195
  35   0.0000       0.108833         2.9615
  36   0.0000       0.119761         3.2589

MULLIKEN ATOMIC CHARGES
-----------------------
   0 C :   -0.497714
   1 C :   -0.205490
   2 C :   -0.302443
   3 C :    0.348937
   4 O :   -0.432105
   5 O :   -0.174743
   6 C :   -0.135886
   7 C :   -0.471740
   8 H :    0.147887
   9 H :    0.158886
  10 H :    0.143761
  11 H :    0.142163
  12 H :    0.159078
  13 H :    0.166306
  14 H :    0.166867
  15 H :    0.147755
  16 H :    0.166985
  17 H :    0.146844
  18 H :    0.173014
  19 H :    0.151637
Sum of atomic charges:   -0.0000000

LOEWDIN ATOMIC CHARGES
----------------------
   0 C :   -0.416921
   1 C :   -0.296306
   2 C :   -0.232283
   3 C :    0.357262
   4 O :   -0.440578
   5 O :   -0.595807
   6 C :    0.026470
   7 C :   -0.390617
   8 H :    0.152799
   9 H :    0.157075
  10 H :    0.149401
  11 H :    0.152475
  12 H :    0.168986
  13 H :    0.178332
  14 H :    0.182684
  15 H :    0.177770
  16 H :    0.187721
  17 H :    0.159085
  18 H :    0.165376
  19 H :    0.157077

  Mayer bond orders larger than 0.100000
B(  0-C ,  1-C ) :   0.9079 B(  0-C ,  8-H ) :   0.9690 B(  0-C ,  9-H ) :   0.9744
B(  0-C , 10-H ) :   0.9824 B(  1-C ,  2-C ) :   0.8965 B(  1-C , 11-H ) :   0.9648
B(  1-C , 12-H ) :   0.9625 B(  2-C ,  3-C ) :   0.9494 B(  2-C , 13-H ) :   1.0017
B(  2-C , 14-H ) :   0.9251 B(  3-C ,  4-O ) :   1.8343 B(  3-C ,  5-O ) :   1.0544
B(  5-O ,  6-C ) :   0.8204 B(  6-C ,  7-C ) :   0.9371 B(  6-C , 15-H ) :   0.9611
B(  6-C , 16-H ) :   0.9674 B(  7-C , 17-H ) :   0.9651 B(  7-C , 18-H ) :   0.9716
B(  7-C , 19-H ) :   0.9734

Dispersion correction           -0.005106911
FINAL SINGLE POINT ENERGY      -386.236976686925

DIPOLE MOMENT
-------------

Method             : SCF
Type of density    : Electron Density
Multiplicity       :   1
Irrep              :   0
Energy             :  -386.2436190694961624 Eh
Relativity type    :
Basis              : AO
                                X                 Y                 Z
Electronic contribution:      2.030466735       1.098683745      -0.777863141
Nuclear contribution   :     -1.816219090      -1.199922550       1.434806243
                        -----------------------------------------
Total Dipole Moment    :      0.214247645      -0.101238805       0.656943102
                        -----------------------------------------
Magnitude (a.u.)       :      0.698373531
Magnitude (Debye)      :      1.775124443

Rotational constants in cm-1:             0.164671             0.032884             0.032435
Rotational constants in MHz :          4936.711394           985.848041           972.389637

                             ****ORCA TERMINATED NORMALLY****
TOTAL RUN TIME: 0 days 0 hours 0 minutes 33 seconds 325 msec
