                         Program Version 6.0.0  -   RELEASE  -
|  1> ! r2scan-3c def2/J RI DEFGRID2 scfconv6 printgap
|  2> %output
|  3>     printlevel normal
|  4> end
|  5> %cpcm
|  6>     smd true
|  7>     smdsolvent "water"
|  8> end
|  9> * xyz 0 1
| 10> C -2.7384549626 -1.175829319 -0.0695499307
| 11> C -2.5243230556 0.332732482 -0.0390115962
| 12> C -1.2299529324 0.7024979465 0.6877574997
| 13> C -0.0140840003 0.2633818938 -0.0879391075
| 14> O 0.1158948265 0.3531575041 -1.2906583842
| 15> O 0.9163390248 -0.2394748912 0.7162564701
| 16> C 2.1629574973 -0.6652234727 0.1409906642
| 17> C 3.1326792824 0.4984865433 0.0037928618
| 18> H -3.6688348296 -1.4165320493 -0.5767099721
| 19> H -1.923208798 -1.6623418074 -0.6018761498
| 20> H -2.7797465952 -1.5775345344 0.9401363205
| 21> H -3.3633289092 0.8119589718 0.4658585194
| 22> H -2.4718083945 0.7145570952 -1.0602506715
| 23> H -1.1878644554 0.2548150812 1.6802046379
| 24> H -1.1644731766 1.7878817392 0.7903347582
| 25> H 2.540818738 -1.4177610838 0.8335706992
| 26> H 1.9605797391 -1.1144598703 -0.8361679301
| 27> H 4.0852217062 0.1312144824 -0.3638684985
| 28> H 2.7404866485 1.2290098158 -0.700317996
| 29> H 3.2799197439 0.9783875259 0.9675373625
| 30> *
| 31>
| 32>                          ****END OF INPUT****

CARTESIAN COORDINATES (ANGSTROEM)
---------------------------------
  C     -2.738455   -1.175829   -0.069550
  C     -2.524323    0.332732   -0.039012
  C     -1.229953    0.702498    0.687757
  C     -0.014084    0.263382   -0.087939
  O      0.115895    0.353158   -1.290658
  O      0.916339   -0.239475    0.716256
  C      2.162957   -0.665223    0.140991
  C      3.132679    0.498487    0.003793
  H     -3.668835   -1.416532   -0.576710
  H     -1.923209   -1.662342   -0.601876
  H     -2.779747   -1.577535    0.940136
  H     -3.363329    0.811959    0.465859
  H     -2.471808    0.714557   -1.060251
  H     -1.187864    0.254815    1.680205
  H     -1.164473    1.787882    0.790335
  H      2.540819   -1.417761    0.833571
  H      1.960580   -1.114460   -0.836168
  H      4.085222    0.131214   -0.363868
  H      2.740487    1.229010   -0.700318
  H      3.279920    0.978388    0.967537

 Total Charge           Charge          ....    0
 Multiplicity           Mult            ....    1
 Number of Electrons    NEL             ....   64
 Basis Dimension        Dim             ....  222

ORBITAL ENERGIES
----------------

  NO   OCC          E(Eh)            E(eV)
   0   2.0000     -19.002201      -517.0762
   1   2.0000     -18.943477      -515.4782
   2   2.0000     -10.162213      -276.5279
   3   2.0000     -10.082991      -274.3721
   4   2.0000     -10.035087      -273.0686
   5   2.0000     -10.026373      -272.8315
   6   2.0000     -10.018220      -272.6096
   7   2.0000     -10.010872      -272.4097
   8   2.0000      -1.078270       -29.3412
   9   2.0000      -0.988984       -26.9116
  10   2.0000      -0.768121       -20.9016
  11   2.0000      -0.732867       -19.9423
  12   2.0000      -0.672629       -18.3032
  13   2.0000      -0.619239       -16.8503
  14   2.0000      -0.559152       -15.2153
  15   2.0000      -0.516981       -14.0678
  16   2.0000      -0.474249       -12.9050
  17   2.0000      -0.461041       -12.5456
  18   2.0000      -0.443078       -12.0568
  19   2.0000      -0.421445       -11.4681
  20   2.0000      -0.405506       -11.0344
  21   2.0000      -0.385529       -10.4908
  22   2.0000      -0.371329       -10.1044
  23   2.0000      -0.360105        -9.7990
  24   2.0000      -0.349340        -9.5060
  25   2.0000      -0.339765        -9.2455
  26   2.0000      -0.309995        -8.4354
  27   2.0000      -0.305155        -8.3037
  28   2.0000      -0.302353        -8.2274
  29   2.0000      -0.301226        -8.1968
  30   2.0000      -0.278631        -7.5819
  31   2.0000      -0.252319        -6.8659
  32   0.0000      -0.022654        -0.6165
  33   0.0000       0.077352         2.1049
  34   0.0000       0.099254         2.7008
  35   0.0000       0.118199         3.2164
  36   0.0000       0.127548         3.4707

MULLIKEN ATOMIC CHARGES
-----------------------
   0 C :   -0.528911
   1 C :   -0.220849
   2 C :   -0.314833
   3 C :    0.388949
   4 O :   -0.512957
   5 O :   -0.197539
   6 C :   -0.142611
   7 C :   -0.496219
   8 H :    0.160592
   9 H :    0.161070
  10 H :    0.160251
  11 H :    0.161533
  12 H :    0.151523
  13 H :    0.181618
  14 H :    0.198631
  15 H :    0.173620
  16 H :    0.171678
  17 H :    0.170234
  18 H :    0.168734
  19 H :    0.165488
Sum of atomic charges:   -0.0000000

LOEWDIN ATOMIC CHARGES
----------------------
   0 C :   -0.423857
   1 C :   -0.296234
   2 C :   -0.229083
   3 C :    0.367345
   4 O :   -0.498091
   5 O :   -0.599679
   6 C :    0.031003
   7 C :   -0.393444
   8 H :    0.155803
   9 H :    0.156138
  10 H :    0.155230
  11 H :    0.160071
  12 H :    0.164154
  13 H :    0.185896
  14 H :    0.194309
  15 H :    0.189050
  16 H :    0.189285
  17 H :    0.167712
  18 H :    0.162441
  19 H :    0.161952

  Mayer bond orders larger than 0.100000
B(  0-C ,  1-C ) :   0.9054 B(  0-C ,  8-H ) :   0.9667 B(  0-C ,  9-H ) :   0.9723
B(  0-C , 10-H ) :   0.9782 B(  1-C ,  2-C ) :   0.8807 B(  1-C , 11-H ) :   0.9605
B(  1-C , 12-H ) :   0.9687 B(  2-C ,  3-C ) :   0.9534 B(  2-C , 13-H ) :   0.9909
B(  2-C , 14-H ) :   0.9170 B(  3-C ,  4-O ) :   1.7693 B(  3-C ,  5-O ) :   1.0757
B(  5-O ,  6-C ) :   0.8023 B(  6-C ,  7-C ) :   0.9359 B(  6-C , 15-H ) :   0.9517
B(  6-C , 16-H ) :   0.9635 B(  7-C , 17-H ) :   0.9602 B(  7-C , 18-H ) :   0.9694
B(  7-C , 19-H ) :   0.9695

Dispersion correction           -0.005106911
FINAL SINGLE POINT ENERGY      -386.241690390736

DIPOLE MOMENT
-------------

Method             : SCF
Type of density    : Electron Density
Multiplicity       :   1
Irrep              :   0
Energy             :  -386.2483327733074248 Eh
Relativity type    :
Basis              : AO
                                X                 Y                 Z
Electronic contribution:      2.083613695       1.051494206      -0.414085345
Nuclear contribution   :     -1.816219090      -1.199922550       1.434806243
                        -----------------------------------------
Total Dipole Moment    :      0.267394604      -0.148428344       1.020720898
                        -----------------------------------------
Magnitude (a.u.)       :      1.065552439
Magnitude (Debye)      :      2.708419058

Rotational constants in cm-1:             0.164671             0.032884             0.032435
Rotational constants in MHz :          4936.711394           985.848041           972.389637

                             ****ORCA TERMINATED NORMALLY****
TOTAL RUN TIME: 0 days 0 hours 0 minutes 39 seconds 577 msec
