                         Program Version 6.0.0  -   RELEASE  -
|  1> ! pbe def2-sv(p) def2/J RI DEFGRID1 loosescf d4 GCP(DFT/SV(P)) printgap
|  2> %output
|  3>     printlevel normal
|  4> end
|  5> * xyz 0 1
|  6> C -2.709962756 -0.9703977633 -0.4707964719
|  7> C -2.2063428669 -0.2633216013 0.7815497145
|  8> C -1.294069602 0.9229496053 0.439700882
|  9> C -0.0285020097 0.4485064121 -0.2264382643
| 10> O 0.2589628448 0.6392117005 -1.3901530372
| 11> O 0.7387265657 -0.230100281 0.6177695428
| 12> C 1.9824316419 -0.7628609712 0.1354165613
| 13> C 3.0892216668 0.2787595796 0.197185276
| 14> H -3.3455282518 -1.8102335361 -0.2030713604
| 15> H -3.2837395738 -0.2852410019 -1.0904136052
| 16> H -1.8773710783 -1.3430449494 -1.0648519185
| 17> H -1.6528070135 -0.9651394671 1.4073028571
| 18> H -3.0561687417 0.1087802872 1.3546487382
| 19> H -1.018914202 1.4430012212 1.3572279282
| 20> H -1.8011118425 1.609516592 -0.2378365703
| 21> H 2.1934020839 -1.6055882055 0.7944053599
| 22> H 1.8393745055 -1.1098794799 -0.8926033157
| 23> H 3.1870690061 0.6616157221 1.2093909345
| 24> H 4.0268711188 -0.1743227478 -0.1076268278
| 25> H 2.8612472569 1.1038817645 -0.4739506157
| 26> *
| 27>
| 28>                          ****END OF INPUT****

CARTESIAN COORDINATES (ANGSTROEM)
---------------------------------
  C     -2.709963   -0.970398   -0.470796
  C     -2.206343   -0.263322    0.781550
  C     -1.294070    0.922950    0.439701
  C     -0.028502    0.448506   -0.226438
  O      0.258963    0.639212   -1.390153
  O      0.738727   -0.230100    0.617770
  C      1.982432   -0.762861    0.135417
  C      3.089222    0.278760    0.197185
  H     -3.345528   -1.810234   -0.203071
  H     -3.283740   -0.285241   -1.090414
  H     -1.877371   -1.343045   -1.064852
  H     -1.652807   -0.965139    1.407303
  H     -3.056169    0.108780    1.354649
  H     -1.018914    1.443001    1.357228
  H     -1.801112    1.609517   -0.237837
  H      2.193402   -1.605588    0.794405
  H      1.839375   -1.109879   -0.892603
  H      3.187069    0.661616    1.209391
  H      4.026871   -0.174323   -0.107627
  H      2.861247    1.103882   -0.473951

 Total Charge           Charge          ....    0
 Multiplicity           Mult            ....    1
 Number of Electrons    NEL             ....   64
 Basis Dimension        Dim             ....  136

ORBITAL ENERGIES
----------------

  NO   OCC          E(Eh)            E(eV)
   0   2.0000     -18.797284      -511.5001
   1   2.0000     -18.730545      -509.6841
   2   2.0000     -10.004290      -272.2306
   3   2.0000      -9.946782      -270.6657
   4   2.0000      -9.895994      -269.2837
   5   2.0000      -9.894117      -269.2326
   6   2.0000      -9.886155      -269.0160
   7   2.0000      -9.876562      -268.7549
   8   2.0000      -1.004102       -27.3230
   9   2.0000      -0.907481       -24.6938
  10   2.0000      -0.729977       -19.8637
  11   2.0000      -0.694689       -18.9035
  12   2.0000      -0.636348       -17.3159
  13   2.0000      -0.589068       -16.0293
  14   2.0000      -0.535800       -14.5799
  15   2.0000      -0.496302       -13.5051
  16   2.0000      -0.452948       -12.3253
  17   2.0000      -0.428138       -11.6502
  18   2.0000      -0.415238       -11.2992
  19   2.0000      -0.406915       -11.0727
  20   2.0000      -0.387194       -10.5361
  21   2.0000      -0.378933       -10.3113
  22   2.0000      -0.357021        -9.7150
  23   2.0000      -0.351852        -9.5744
  24   2.0000      -0.338074        -9.1994
  25   2.0000      -0.325523        -8.8579
  26   2.0000      -0.311230        -8.4690
  27   2.0000      -0.300754        -8.1839
  28   2.0000      -0.297811        -8.1038
  29   2.0000      -0.289322        -7.8728
  30   2.0000      -0.255141        -6.9427
  31   2.0000      -0.213681        -5.8146
  32   0.0000      -0.020295        -0.5522
  33   0.0000       0.041354         1.1253
  34   0.0000       0.053704         1.4614
  35   0.0000       0.074631         2.0308
  36   0.0000       0.079983         2.1764

MULLIKEN ATOMIC CHARGES
-----------------------
   0 C :   -0.286352
   1 C :   -0.218363
   2 C :   -0.097869
   3 C :    0.086117
   4 O :   -0.207552
   5 O :   -0.242777
   6 C :   -0.009970
   7 C :   -0.305097
   8 H :    0.105709
   9 H :    0.102886
  10 H :    0.119776
  11 H :    0.101959
  12 H :    0.095186
  13 H :    0.103104
  14 H :    0.096936
  15 H :    0.099765
  16 H :    0.105144
  17 H :    0.112015
  18 H :    0.111480
  19 H :    0.127902
Sum of atomic charges:   -0.0000000

LOEWDIN ATOMIC CHARGES
----------------------
   0 C :   -0.342823
   1 C :   -0.227895
   2 C :   -0.242252
   3 C :    0.035220
   4 O :   -0.170392
   5 O :   -0.068775
   6 C :   -0.112844
   7 C :   -0.356772
   8 H :    0.120475
   9 H :    0.120465
  10 H :    0.121537
  11 H :    0.119430
  12 H :    0.118636
  13 H :    0.135482
  14 H :    0.131659
  15 H :    0.116078
  16 H :    0.118244
  17 H :    0.123809
  18 H :    0.129865
  19 H :    0.130854

  Mayer bond orders larger than 0.100000
B(  0-C ,  1-C ) :   1.1530 B(  0-C ,  8-H ) :   0.9513 B(  0-C ,  9-H ) :   0.9535
B(  0-C , 10-H ) :   0.9478 B(  1-C ,  2-C ) :   1.1087 B(  1-C , 11-H ) :   0.9254
B(  1-C , 12-H ) :   0.9276 B(  2-C ,  3-C ) :   1.0301 B(  2-C , 13-H ) :   0.8964
B(  2-C , 14-H ) :   0.9098 B(  3-C ,  4-O ) :   2.0419 B(  3-C ,  5-O ) :   1.1941
B(  5-O ,  6-C ) :   0.9250 B(  6-C ,  7-C ) :   1.1738 B(  6-C , 15-H ) :   0.9369
B(  6-C , 16-H ) :   0.9140 B(  7-C , 17-H ) :   0.9490 B(  7-C , 18-H ) :   0.9444
B(  7-C , 19-H ) :   0.9457

Dispersion correction           -0.015384719
FINAL SINGLE POINT ENERGY      -385.457792351272

DIPOLE MOMENT
-------------

Method             : SCF
Type of density    : Electron Density
Multiplicity       :   1
Irrep              :   0
Energy             :  -385.5327554204650937 Eh
Relativity type    :
Basis              : AO
                                X                 Y                 Z
Electronic contribution:      1.922751470       1.931241059      -1.245079176
Nuclear contribution   :     -1.793688211      -2.214249411       1.914248203
                        -----------------------------------------
Total Dipole Moment    :      0.129063258      -0.283008353       0.669169027
                        -----------------------------------------
Magnitude (a.u.)       :      0.737928343
Magnitude (Debye)      :      1.875664787

Rotational constants in cm-1:             0.143866             0.035493             0.034250
Rotational constants in MHz :          4312.987973          1064.054759          1026.789341

                             ****ORCA TERMINATED NORMALLY****
TOTAL RUN TIME: 0 days 0 hours 0 minutes 10 seconds 716 msec
