                         Program Version 6.0.0  -   RELEASE  -
|  1> ! pbe def2-sv(p) def2/J RI DEFGRID1 loosescf d4 GCP(DFT/SV(P)) printgap
|  2> %output
|  3>     printlevel normal
|  4> end
|  5> * xyz 0 1
|  6> C -2.3913580306 -1.1840538398 -0.5970456272
|  7> C -2.0235950771 -0.5519937281 0.7399656973
|  8> C -1.4282034692 0.8489192091 0.5591454894
|  9> C -0.1179122956 0.8064045618 -0.1843571886
| 10> O 0.1164596577 1.4108909031 -1.2122048808
| 11> O 0.7722291892 0.031824935 0.4173562058
| 12> C 2.0683431241 -0.0974025143 -0.1886251877
| 13> C 2.8306113749 -1.18198393 0.5477107124
| 14> H -3.1314175566 -0.5784850785 -1.1150200664
| 15> H -1.5149713104 -1.2650842807 -1.2376460324
| 16> H -2.8018542286 -2.1789882645 -0.4472607556
| 17> H -1.2989538636 -1.179746489 1.2596877664
| 18> H -2.9159306335 -0.4717147526 1.3615483779
| 19> H -1.236630197 1.2908688587 1.5380130994
| 20> H -2.1103790765 1.4908613669 0.0016305027
| 21> H 1.9348781083 -0.3381211569 -1.2486546274
| 22> H 2.5761947888 0.8704430156 -0.1217631796
| 23> H 3.8228717978 -1.2771425629 0.1193818509
| 24> H 2.9161398086 -0.9253172982 1.5993490898
| 25> H 2.3100745904 -2.130998968 0.4595308904
| 26> *
| 27>
| 28>                          ****END OF INPUT****

CARTESIAN COORDINATES (ANGSTROEM)
---------------------------------
  C     -2.391358   -1.184054   -0.597046
  C     -2.023595   -0.551994    0.739966
  C     -1.428203    0.848919    0.559145
  C     -0.117912    0.806405   -0.184357
  O      0.116460    1.410891   -1.212205
  O      0.772229    0.031825    0.417356
  C      2.068343   -0.097403   -0.188625
  C      2.830611   -1.181984    0.547711
  H     -3.131418   -0.578485   -1.115020
  H     -1.514971   -1.265084   -1.237646
  H     -2.801854   -2.178988   -0.447261
  H     -1.298954   -1.179746    1.259688
  H     -2.915931   -0.471715    1.361548
  H     -1.236630    1.290869    1.538013
  H     -2.110379    1.490861    0.001631
  H      1.934878   -0.338121   -1.248655
  H      2.576195    0.870443   -0.121763
  H      3.822872   -1.277143    0.119382
  H      2.916140   -0.925317    1.599349
  H      2.310075   -2.130999    0.459531

 Total Charge           Charge          ....    0
 Multiplicity           Mult            ....    1
 Number of Electrons    NEL             ....   64
 Basis Dimension        Dim             ....  136

ORBITAL ENERGIES
----------------

  NO   OCC          E(Eh)            E(eV)
   0   2.0000     -18.797759      -511.5130
   1   2.0000     -18.728562      -509.6301
   2   2.0000     -10.003097      -272.1981
   3   2.0000      -9.947564      -270.6870
   4   2.0000      -9.896163      -269.2883
   5   2.0000      -9.893037      -269.2032
   6   2.0000      -9.890069      -269.1225
   7   2.0000      -9.877880      -268.7908
   8   2.0000      -1.004863       -27.3437
   9   2.0000      -0.905228       -24.6325
  10   2.0000      -0.730763       -19.8851
  11   2.0000      -0.698535       -19.0081
  12   2.0000      -0.636551       -17.3214
  13   2.0000      -0.582005       -15.8372
  14   2.0000      -0.535907       -14.5828
  15   2.0000      -0.507482       -13.8093
  16   2.0000      -0.450125       -12.2485
  17   2.0000      -0.438139       -11.9224
  18   2.0000      -0.414656       -11.2834
  19   2.0000      -0.401997       -10.9389
  20   2.0000      -0.390706       -10.6317
  21   2.0000      -0.364764        -9.9257
  22   2.0000      -0.363184        -9.8827
  23   2.0000      -0.354316        -9.6414
  24   2.0000      -0.341743        -9.2993
  25   2.0000      -0.322627        -8.7791
  26   2.0000      -0.313726        -8.5369
  27   2.0000      -0.299459        -8.1487
  28   2.0000      -0.297422        -8.0933
  29   2.0000      -0.293685        -7.9916
  30   2.0000      -0.255841        -6.9618
  31   2.0000      -0.211300        -5.7498
  32   0.0000      -0.018462        -0.5024
  33   0.0000       0.032983         0.8975
  34   0.0000       0.052167         1.4195
  35   0.0000       0.073809         2.0085
  36   0.0000       0.077613         2.1120

MULLIKEN ATOMIC CHARGES
-----------------------
   0 C :   -0.286763
   1 C :   -0.211439
   2 C :   -0.105514
   3 C :    0.081771
   4 O :   -0.208267
   5 O :   -0.244204
   6 C :   -0.028429
   7 C :   -0.272858
   8 H :    0.103271
   9 H :    0.116453
  10 H :    0.106073
  11 H :    0.102887
  12 H :    0.092676
  13 H :    0.108066
  14 H :    0.097075
  15 H :    0.106306
  16 H :    0.103482
  17 H :    0.111080
  18 H :    0.114235
  19 H :    0.114100
Sum of atomic charges:   -0.0000000

LOEWDIN ATOMIC CHARGES
----------------------
   0 C :   -0.341864
   1 C :   -0.231243
   2 C :   -0.242725
   3 C :    0.031006
   4 O :   -0.168808
   5 O :   -0.070831
   6 C :   -0.108246
   7 C :   -0.350874
   8 H :    0.120351
   9 H :    0.119947
  10 H :    0.120720
  11 H :    0.119534
  12 H :    0.118306
  13 H :    0.138331
  14 H :    0.132210
  15 H :    0.116183
  16 H :    0.115591
  17 H :    0.130273
  18 H :    0.126301
  19 H :    0.125838

  Mayer bond orders larger than 0.100000
B(  0-C ,  1-C ) :   1.1524 B(  0-C ,  8-H ) :   0.9536 B(  0-C ,  9-H ) :   0.9489
B(  0-C , 10-H ) :   0.9517 B(  1-C ,  2-C ) :   1.1080 B(  1-C , 11-H ) :   0.9229
B(  1-C , 12-H ) :   0.9265 B(  2-C ,  3-C ) :   1.0389 B(  2-C , 13-H ) :   0.8943
B(  2-C , 14-H ) :   0.9109 B(  3-C ,  4-O ) :   2.0613 B(  3-C ,  5-O ) :   1.1882
B(  5-O ,  6-C ) :   0.9149 B(  6-C ,  7-C ) :   1.1493 B(  6-C , 15-H ) :   0.9276
B(  6-C , 16-H ) :   0.9349 B(  7-C , 17-H ) :   0.9445 B(  7-C , 18-H ) :   0.9489
B(  7-C , 19-H ) :   0.9510

Dispersion correction           -0.015065211
FINAL SINGLE POINT ENERGY      -385.457442817268

DIPOLE MOMENT
-------------

Method             : SCF
Type of density    : Electron Density
Multiplicity       :   1
Irrep              :   0
Energy             :  -385.5323458739034663 Eh
Relativity type    :
Basis              : AO
                                X                 Y                 Z
Electronic contribution:      1.539381668       5.705419140      -1.432040744
Nuclear contribution   :     -1.347143233      -6.258156177       2.022906894
                        -----------------------------------------
Total Dipole Moment    :      0.192238434      -0.552737038       0.590866150
                        -----------------------------------------
Magnitude (a.u.)       :      0.831622905
Magnitude (Debye)      :      2.113817437

Rotational constants in cm-1:             0.102919             0.039856             0.034172
Rotational constants in MHz :          3085.446464          1194.844183          1024.460324

                             ****ORCA TERMINATED NORMALLY****
TOTAL RUN TIME: 0 days 0 hours 0 minutes 10 seconds 887 msec
