                         Program Version 6.0.0  -   RELEASE  -
|  1> ! pbe def2-sv(p) def2/J RI DEFGRID1 loosescf d4 GCP(DFT/SV(P)) printgap
|  2> %output
|  3>     printlevel normal
|  4> end
|  5> * xyz 0 1
|  6> C 2.430497662 -0.2955703642 -0.1274053735
|  7> C 1.0305873473 0.2415282971 -0.4003346796
|  8> C 0.0500067317 -0.1639479461 0.6989988432
|  9> C -1.3479554072 0.426162005 0.5091002312
| 10> N -2.0526856318 -0.2289289137 -0.586375353
| 11> H 2.4152722427 -1.3814192273 -0.0719780516
| 12> H 3.114486548 -8.21384e-05 -0.9192383552
| 13> H 2.8088811283 0.0901634777 0.8165327565
| 14> H 1.0671787601 1.3320998279 -0.467117222
| 15> H 0.6845891817 -0.1427336993 -1.361684874
| 16> H -0.0358299999 -1.2507409322 0.7289662614
| 17> H 0.4381377207 0.1744689051 1.6618140946
| 18> H -1.2601588179 1.518629225 0.3722723309
| 19> H -1.9339230018 0.2512867524 1.4161313886
| 20> H -1.5667029023 -0.0526824699 -1.4591868769
| 21> H -2.983720387 0.1616599701 -0.6754444293
| 22> *
| 23>
| 24>                          ****END OF INPUT****

CARTESIAN COORDINATES (ANGSTROEM)
---------------------------------
  C      2.430498   -0.295570   -0.127405
  C      1.030587    0.241528   -0.400335
  C      0.050007   -0.163948    0.698999
  C     -1.347955    0.426162    0.509100
  N     -2.052686   -0.228929   -0.586375
  H      2.415272   -1.381419   -0.071978
  H      3.114487   -0.000082   -0.919238
  H      2.808881    0.090163    0.816533
  H      1.067179    1.332100   -0.467117
  H      0.684589   -0.142734   -1.361685
  H     -0.035830   -1.250741    0.728966
  H      0.438138    0.174469    1.661814
  H     -1.260159    1.518629    0.372272
  H     -1.933923    0.251287    1.416131
  H     -1.566703   -0.052682   -1.459187
  H     -2.983720    0.161660   -0.675444

 Total Charge           Charge          ....    0
 Multiplicity           Mult            ....    1
 Number of Electrons    NEL             ....   42
 Basis Dimension        Dim             ....   92

ORBITAL ENERGIES
----------------

  NO   OCC          E(Eh)            E(eV)
   0   2.0000     -13.953056      -379.6820
   1   2.0000      -9.901901      -269.4444
   2   2.0000      -9.882545      -268.9177
   3   2.0000      -9.875861      -268.7358
   4   2.0000      -9.871098      -268.6062
   5   2.0000      -0.789949       -21.4956
   6   2.0000      -0.704475       -19.1697
   7   2.0000      -0.630342       -17.1525
   8   2.0000      -0.550680       -14.9848
   9   2.0000      -0.504579       -13.7303
  10   2.0000      -0.439329       -11.9548
  11   2.0000      -0.422986       -11.5100
  12   2.0000      -0.385199       -10.4818
  13   2.0000      -0.380085       -10.3426
  14   2.0000      -0.350199        -9.5294
  15   2.0000      -0.328405        -8.9364
  16   2.0000      -0.320500        -8.7212
  17   2.0000      -0.290282        -7.8990
  18   2.0000      -0.284525        -7.7423
  19   2.0000      -0.275455        -7.4955
  20   2.0000      -0.178668        -4.8618
  21   0.0000       0.033219         0.9039
  22   0.0000       0.055176         1.5014
  23   0.0000       0.063214         1.7201
  24   0.0000       0.078475         2.1354
  25   0.0000       0.096142         2.6162

MULLIKEN ATOMIC CHARGES
-----------------------
   0 C :   -0.256065
   1 C :   -0.216450
   2 C :   -0.174846
   3 C :   -0.050999
   4 N :   -0.468822
   5 H :    0.099491
   6 H :    0.100445
   7 H :    0.096890
   8 H :    0.080707
   9 H :    0.086172
  10 H :    0.087564
  11 H :    0.078346
  12 H :    0.057119
  13 H :    0.077447
  14 H :    0.200806
  15 H :    0.202195
Sum of atomic charges:    0.0000000

LOEWDIN ATOMIC CHARGES
----------------------
   0 C :   -0.338691
   1 C :   -0.238668
   2 C :   -0.236573
   3 C :   -0.174583
   4 N :   -0.420081
   5 H :    0.118289
   6 H :    0.117668
   7 H :    0.116386
   8 H :    0.112018
   9 H :    0.111544
  10 H :    0.119448
  11 H :    0.115167
  12 H :    0.086145
  13 H :    0.110245
  14 H :    0.198126
  15 H :    0.203560

  Mayer bond orders larger than 0.100000
B(  0-C ,  1-C ) :   1.1579 B(  0-C ,  5-H ) :   0.9548 B(  0-C ,  6-H ) :   0.9532
B(  0-C ,  7-H ) :   0.9549 B(  1-C ,  2-C ) :   1.1365 B(  1-C ,  8-H ) :   0.9267
B(  1-C ,  9-H ) :   0.9206 B(  2-C ,  3-C ) :   1.1235 B(  2-C , 10-H ) :   0.9146
B(  2-C , 11-H ) :   0.9208 B(  3-C ,  4-N ) :   1.1074 B(  3-C , 12-H ) :   0.9142
B(  3-C , 13-H ) :   0.9288 B(  4-N , 14-H ) :   0.9008 B(  4-N , 15-H ) :   0.9040

Dispersion correction           -0.010069989
FINAL SINGLE POINT ENERGY      -213.244792797718

DIPOLE MOMENT
-------------

Method             : SCF
Type of density    : Electron Density
Multiplicity       :   1
Irrep              :   0
Energy             :  -213.3051334728401685 Eh
Relativity type    :
Basis              : AO
                                X                 Y                 Z
Electronic contribution:     -2.604914149      -0.179114507      -0.205560558
Nuclear contribution   :      2.567050963       0.656072188       0.035323401
                        -----------------------------------------
Total Dipole Moment    :     -0.037863186       0.476957681      -0.170237157
                        -----------------------------------------
Magnitude (a.u.)       :      0.507841452
Magnitude (Debye)      :      1.290830386

Rotational constants in cm-1:             0.423484             0.076900             0.071617
Rotational constants in MHz :         12695.729428          2305.411688          2147.025567

                             ****ORCA TERMINATED NORMALLY****
TOTAL RUN TIME: 0 days 0 hours 0 minutes 7 seconds 383 msec
