                         Program Version 6.0.0  -   RELEASE  -
|  1> ! pbe def2-sv(p) def2/J RI DEFGRID1 loosescf d4 GCP(DFT/SV(P)) printgap
|  2> %output
|  3>     printlevel normal
|  4> end
|  5> * xyz 0 1
|  6> C -3.3188942716 -0.8571245753 0.2318029474
|  7> C -1.9159654537 -0.5790640709 -0.2942228095
|  8> C -1.5047749497 0.8730455265 -0.0593467413
|  9> C -0.1117387354 1.1687197585 -0.6214400948
| 10> C 0.9479192248 0.4080925165 0.1318752305
| 11> O 1.0619499641 0.3740324387 1.3389666282
| 12> O 1.7713487772 -0.2332303585 -0.6916850433
| 13> C 2.8388714188 -0.9855372108 -0.108953522
| 14> H -3.368486396 -0.6624339758 1.3006146769
| 15> H -4.0443892288 -0.2196469801 -0.2676885768
| 16> H -3.5929938774 -1.8943989904 0.0578925047
| 17> H -1.2022902469 -1.2387070625 0.2064657507
| 18> H -1.8776144558 -0.7981080696 -1.3634739649
| 19> H -1.500759146 1.0799909769 1.012746621
| 20> H -2.2276363899 1.5368847314 -0.5348495647
| 21> H 0.1074486614 2.2317341703 -0.505284312
| 22> H -0.0459174328 0.9034813908 -1.6759941429
| 23> H 2.4342895763 -1.8036435738 0.4881235119
| 24> H 3.441568107 -0.3424227832 0.5333270773
| 25> H 3.4212036196 -1.3630657687 -0.9432914049
| 26> *
| 27>
| 28>                          ****END OF INPUT****

CARTESIAN COORDINATES (ANGSTROEM)
---------------------------------
  C     -3.318894   -0.857125    0.231803
  C     -1.915965   -0.579064   -0.294223
  C     -1.504775    0.873046   -0.059347
  C     -0.111739    1.168720   -0.621440
  C      0.947919    0.408093    0.131875
  O      1.061950    0.374032    1.338967
  O      1.771349   -0.233230   -0.691685
  C      2.838871   -0.985537   -0.108954
  H     -3.368486   -0.662434    1.300615
  H     -4.044389   -0.219647   -0.267689
  H     -3.592994   -1.894399    0.057893
  H     -1.202290   -1.238707    0.206466
  H     -1.877614   -0.798108   -1.363474
  H     -1.500759    1.079991    1.012747
  H     -2.227636    1.536885   -0.534850
  H      0.107449    2.231734   -0.505284
  H     -0.045917    0.903481   -1.675994
  H      2.434290   -1.803644    0.488124
  H      3.441568   -0.342423    0.533327
  H      3.421204   -1.363066   -0.943291

 Total Charge           Charge          ....    0
 Multiplicity           Mult            ....    1
 Number of Electrons    NEL             ....   64
 Basis Dimension        Dim             ....  136

ORBITAL ENERGIES
----------------

  NO   OCC          E(Eh)            E(eV)
   0   2.0000     -18.799707      -511.5660
   1   2.0000     -18.731749      -509.7168
   2   2.0000     -10.004196      -272.2280
   3   2.0000      -9.941619      -270.5252
   4   2.0000      -9.896622      -269.3008
   5   2.0000      -9.888419      -269.0775
   6   2.0000      -9.884734      -268.9773
   7   2.0000      -9.874362      -268.6950
   8   2.0000      -1.005053       -27.3489
   9   2.0000      -0.908496       -24.7214
  10   2.0000      -0.730592       -19.8804
  11   2.0000      -0.684578       -18.6283
  12   2.0000      -0.646876       -17.6024
  13   2.0000      -0.576460       -15.6863
  14   2.0000      -0.525601       -14.3023
  15   2.0000      -0.499149       -13.5825
  16   2.0000      -0.451799       -12.2941
  17   2.0000      -0.436975       -11.8907
  18   2.0000      -0.422378       -11.4935
  19   2.0000      -0.402506       -10.9528
  20   2.0000      -0.393864       -10.7176
  21   2.0000      -0.380295       -10.3484
  22   2.0000      -0.369123       -10.0443
  23   2.0000      -0.338272        -9.2048
  24   2.0000      -0.335511        -9.1297
  25   2.0000      -0.321696        -8.7538
  26   2.0000      -0.303949        -8.2709
  27   2.0000      -0.293968        -7.9993
  28   2.0000      -0.288049        -7.8382
  29   2.0000      -0.283502        -7.7145
  30   2.0000      -0.258024        -7.0212
  31   2.0000      -0.218032        -5.9330
  32   0.0000      -0.019998        -0.5442
  33   0.0000       0.039676         1.0796
  34   0.0000       0.055540         1.5113
  35   0.0000       0.062973         1.7136
  36   0.0000       0.075239         2.0474

MULLIKEN ATOMIC CHARGES
-----------------------
   0 C :   -0.256465
   1 C :   -0.212276
   2 C :   -0.190371
   3 C :   -0.100822
   4 C :    0.082160
   5 O :   -0.213071
   6 O :   -0.236797
   7 C :   -0.110439
   8 H :    0.101689
   9 H :    0.096432
  10 H :    0.102451
  11 H :    0.102298
  12 H :    0.083689
  13 H :    0.102561
  14 H :    0.085090
  15 H :    0.112719
  16 H :    0.091755
  17 H :    0.118553
  18 H :    0.119613
  19 H :    0.121232
Sum of atomic charges:   -0.0000000

LOEWDIN ATOMIC CHARGES
----------------------
   0 C :   -0.338664
   1 C :   -0.236644
   2 C :   -0.221038
   3 C :   -0.245918
   4 C :    0.034219
   5 O :   -0.171789
   6 O :   -0.073400
   7 C :   -0.204060
   8 H :    0.119428
   9 H :    0.116392
  10 H :    0.119102
  11 H :    0.117714
  12 H :    0.113811
  13 H :    0.123898
  14 H :    0.116703
  15 H :    0.143193
  16 H :    0.127590
  17 H :    0.119175
  18 H :    0.119901
  19 H :    0.120388

  Mayer bond orders larger than 0.100000
B(  0-C ,  1-C ) :   1.1581 B(  0-C ,  8-H ) :   0.9545 B(  0-C ,  9-H ) :   0.9547
B(  0-C , 10-H ) :   0.9533 B(  1-C ,  2-C ) :   1.1341 B(  1-C , 11-H ) :   0.9194
B(  1-C , 12-H ) :   0.9260 B(  2-C ,  3-C ) :   1.1128 B(  2-C , 13-H ) :   0.9132
B(  2-C , 14-H ) :   0.9226 B(  3-C ,  4-C ) :   1.0193 B(  3-C , 15-H ) :   0.8899
B(  3-C , 16-H ) :   0.9074 B(  4-C ,  5-O ) :   2.0462 B(  4-C ,  6-O ) :   1.2219
B(  6-O ,  7-C ) :   0.9401 B(  7-C , 17-H ) :   0.9535 B(  7-C , 18-H ) :   0.9503
B(  7-C , 19-H ) :   0.9594

Dispersion correction           -0.015090948
FINAL SINGLE POINT ENERGY      -385.453706670607

DIPOLE MOMENT
-------------

Method             : SCF
Type of density    : Electron Density
Multiplicity       :   1
Irrep              :   0
Energy             :  -385.5286648320549716 Eh
Relativity type    :
Basis              : AO
                                X                 Y                 Z
Electronic contribution:      8.046507600       2.220735520       0.963665748
Nuclear contribution   :     -7.890728330      -2.409315742      -1.577228248
                        -----------------------------------------
Total Dipole Moment    :      0.155779269      -0.188580222      -0.613562499
                        -----------------------------------------
Magnitude (a.u.)       :      0.660521477
Magnitude (Debye)      :      1.678912169

Rotational constants in cm-1:             0.130950             0.032727             0.031294
Rotational constants in MHz :          3925.773873           981.135169           938.157270

                             ****ORCA TERMINATED NORMALLY****
TOTAL RUN TIME: 0 days 0 hours 0 minutes 10 seconds 811 msec
