                         Program Version 6.0.0  -   RELEASE  -
|  1> ! pbe def2-sv(p) def2/J RI DEFGRID1 loosescf d4 GCP(DFT/SV(P)) printgap
|  2> %output
|  3>     printlevel normal
|  4> end
|  5> * xyz 0 1
|  6> C -2.2909979493 -1.2462746282 0.5899187335
|  7> C -1.9686512577 -0.3209331031 -0.5783901313
|  8> C -1.5644897587 1.0882894713 -0.1422073592
|  9> C -0.2978388816 1.1172034534 0.7241820464
| 10> C 0.8611082507 0.5132202889 -0.0230188335
| 11> O 1.3520121768 0.9680903502 -1.0352942999
| 12> O 1.2850145781 -0.6083517186 0.5501090515
| 13> C 2.3755206073 -1.3031195445 -0.0599450467
| 14> H -3.0341298578 -0.7904041331 1.2397187179
| 15> H -2.6885549971 -2.1883834477 0.2208627875
| 16> H -1.3997546878 -1.4618813712 1.173164418
| 17> H -1.1658084496 -0.7565852583 -1.1789786622
| 18> H -2.8475460805 -0.2376129548 -1.221220468
| 19> H -2.379609622 1.5410018205 0.4236529461
| 20> H -1.386164303 1.6943783858 -1.0328151333
| 21> H -0.4444116316 0.5678717156 1.65159714
| 22> H -0.0491359434 2.1549365344 0.9491376964
| 23> H 2.3605926212 -2.3055008285 0.356703089
| 24> H 3.3119852112 -0.7983313522 0.1789083017
| 25> H 2.2466778813 -1.3232154337 -1.1429274601
| 26> *
| 27>
| 28>                          ****END OF INPUT****

CARTESIAN COORDINATES (ANGSTROEM)
---------------------------------
  C     -2.290998   -1.246275    0.589919
  C     -1.968651   -0.320933   -0.578390
  C     -1.564490    1.088289   -0.142207
  C     -0.297839    1.117203    0.724182
  C      0.861108    0.513220   -0.023019
  O      1.352012    0.968090   -1.035294
  O      1.285015   -0.608352    0.550109
  C      2.375521   -1.303120   -0.059945
  H     -3.034130   -0.790404    1.239719
  H     -2.688555   -2.188383    0.220863
  H     -1.399755   -1.461881    1.173164
  H     -1.165808   -0.756585   -1.178979
  H     -2.847546   -0.237613   -1.221220
  H     -2.379610    1.541002    0.423653
  H     -1.386164    1.694378   -1.032815
  H     -0.444412    0.567872    1.651597
  H     -0.049136    2.154937    0.949138
  H      2.360593   -2.305501    0.356703
  H      3.311985   -0.798331    0.178908
  H      2.246678   -1.323215   -1.142927

 Total Charge           Charge          ....    0
 Multiplicity           Mult            ....    1
 Number of Electrons    NEL             ....   64
 Basis Dimension        Dim             ....  136

ORBITAL ENERGIES
----------------

  NO   OCC          E(Eh)            E(eV)
   0   2.0000     -18.801636      -511.6185
   1   2.0000     -18.731603      -509.7128
   2   2.0000     -10.004713      -272.2421
   3   2.0000      -9.942122      -270.5389
   4   2.0000      -9.895797      -269.2783
   5   2.0000      -9.891217      -269.1537
   6   2.0000      -9.885909      -269.0093
   7   2.0000      -9.874888      -268.7094
   8   2.0000      -1.006165       -27.3791
   9   2.0000      -0.908692       -24.7268
  10   2.0000      -0.732609       -19.9353
  11   2.0000      -0.682545       -18.5730
  12   2.0000      -0.646044       -17.5797
  13   2.0000      -0.585033       -15.9196
  14   2.0000      -0.524245       -14.2654
  15   2.0000      -0.497010       -13.5243
  16   2.0000      -0.448351       -12.2002
  17   2.0000      -0.437798       -11.9131
  18   2.0000      -0.425146       -11.5688
  19   2.0000      -0.410745       -11.1769
  20   2.0000      -0.396863       -10.7992
  21   2.0000      -0.372405       -10.1336
  22   2.0000      -0.360715        -9.8156
  23   2.0000      -0.346925        -9.4403
  24   2.0000      -0.340581        -9.2677
  25   2.0000      -0.327798        -8.9198
  26   2.0000      -0.301794        -8.2122
  27   2.0000      -0.291695        -7.9374
  28   2.0000      -0.286328        -7.7914
  29   2.0000      -0.285308        -7.7636
  30   2.0000      -0.258185        -7.0256
  31   2.0000      -0.217679        -5.9233
  32   0.0000      -0.021055        -0.5729
  33   0.0000       0.035036         0.9534
  34   0.0000       0.056563         1.5392
  35   0.0000       0.069806         1.8995
  36   0.0000       0.078316         2.1311

MULLIKEN ATOMIC CHARGES
-----------------------
   0 C :   -0.294768
   1 C :   -0.189868
   2 C :   -0.184376
   3 C :   -0.123401
   4 C :    0.084419
   5 O :   -0.209853
   6 O :   -0.239842
   7 C :   -0.116050
   8 H :    0.097278
   9 H :    0.103052
  10 H :    0.111080
  11 H :    0.103378
  12 H :    0.089891
  13 H :    0.090041
  14 H :    0.102902
  15 H :    0.100786
  16 H :    0.110461
  17 H :    0.121509
  18 H :    0.119300
  19 H :    0.124062
Sum of atomic charges:    0.0000000

LOEWDIN ATOMIC CHARGES
----------------------
   0 C :   -0.346084
   1 C :   -0.237662
   2 C :   -0.217571
   3 C :   -0.247281
   4 C :    0.035575
   5 O :   -0.171696
   6 O :   -0.071992
   7 C :   -0.205742
   8 H :    0.116447
   9 H :    0.120436
  10 H :    0.117399
  11 H :    0.117338
  12 H :    0.118388
  13 H :    0.117681
  14 H :    0.124224
  15 H :    0.127755
  16 H :    0.141485
  17 H :    0.120564
  18 H :    0.119917
  19 H :    0.120820

  Mayer bond orders larger than 0.100000
B(  0-C ,  1-C ) :   1.1521 B(  0-C ,  8-H ) :   0.9551 B(  0-C ,  9-H ) :   0.9513
B(  0-C , 10-H ) :   0.9455 B(  1-C ,  2-C ) :   1.1353 B(  1-C , 11-H ) :   0.9144
B(  1-C , 12-H ) :   0.9251 B(  2-C ,  3-C ) :   1.1104 B(  2-C , 13-H ) :   0.9235
B(  2-C , 14-H ) :   0.9179 B(  3-C ,  4-C ) :   1.0212 B(  3-C , 15-H ) :   0.9032
B(  3-C , 16-H ) :   0.8955 B(  4-C ,  5-O ) :   2.0569 B(  4-C ,  6-O ) :   1.2001
B(  6-O ,  7-C ) :   0.9397 B(  7-C , 17-H ) :   0.9596 B(  7-C , 18-H ) :   0.9573
B(  7-C , 19-H ) :   0.9432

Dispersion correction           -0.015999189
FINAL SINGLE POINT ENERGY      -385.452544677869

DIPOLE MOMENT
-------------

Method             : SCF
Type of density    : Electron Density
Multiplicity       :   1
Irrep              :   0
Energy             :  -385.5273824789557011 Eh
Relativity type    :
Basis              : AO
                                X                 Y                 Z
Electronic contribution:      6.879306417       3.158553710      -1.060141929
Nuclear contribution   :     -6.974500492      -3.657011774       1.510574842
                        -----------------------------------------
Total Dipole Moment    :     -0.095194075      -0.498458064       0.450432913
                        -----------------------------------------
Magnitude (a.u.)       :      0.678536780
Magnitude (Debye)      :      1.724703431

Rotational constants in cm-1:             0.100781             0.044995             0.036955
Rotational constants in MHz :          3021.332732          1348.923076          1107.881521

                             ****ORCA TERMINATED NORMALLY****
TOTAL RUN TIME: 0 days 0 hours 0 minutes 11 seconds 23 msec
