                         Program Version 6.0.0  -   RELEASE  -
|  1> ! r2scan-3c def2/J RI DEFGRID2 scfconv6 printgap
|  2> %output
|  3>     printlevel normal
|  4> end
|  5> * xyz 0 1
|  6> C -3.4989773855 -0.9161830141 0.1805753361
|  7> C -2.1642936042 -0.28054992 0.5468689896
|  8> C -1.2403605634 -0.1823000072 -0.673828697
|  9> C 0.0313208011 0.5344861979 -0.3042357777
| 10> O 0.0872873325 1.684680191 0.0822162859
| 11> O 1.0893935862 -0.251819457 -0.4315929296
| 12> C 2.3905364511 0.2547561391 -0.0838385094
| 13> C 3.1666928026 -0.8353358165 0.6336804576
| 14> H -4.0116552355 -0.3207691448 -0.5705326447
| 15> H -3.34734182 -1.9168985294 -0.2156784125
| 16> H -4.1345631556 -0.9848245114 1.0590862986
| 17> H -1.6740688414 -0.874460242 1.3208027766
| 18> H -2.3234816326 0.7233985597 0.9455020044
| 19> H -1.740297702 0.3949349755 -1.4532051474
| 20> H -0.9914231025 -1.1726082311 -1.0523521738
| 21> H 2.8852482013 0.5424577541 -1.015964
| 22> H 2.2606033562 1.1438091163 0.5411881038
| 23> H 2.6665350608 -1.1087975256 1.5586303925
| 24> H 3.2395631013 -1.7149401345 0.0009380435
| 25> H 4.1638921723 -0.4734993146 0.8618046645
| 26> *
| 27>
| 28>                          ****END OF INPUT****

CARTESIAN COORDINATES (ANGSTROEM)
---------------------------------
  C     -3.498977   -0.916183    0.180575
  C     -2.164294   -0.280550    0.546869
  C     -1.240361   -0.182300   -0.673829
  C      0.031321    0.534486   -0.304236
  O      0.087287    1.684680    0.082216
  O      1.089394   -0.251819   -0.431593
  C      2.390536    0.254756   -0.083839
  C      3.166693   -0.835336    0.633680
  H     -4.011655   -0.320769   -0.570533
  H     -3.347342   -1.916899   -0.215678
  H     -4.134563   -0.984825    1.059086
  H     -1.674069   -0.874460    1.320803
  H     -2.323482    0.723399    0.945502
  H     -1.740298    0.394935   -1.453205
  H     -0.991423   -1.172608   -1.052352
  H      2.885248    0.542458   -1.015964
  H      2.260603    1.143809    0.541188
  H      2.666535   -1.108798    1.558630
  H      3.239563   -1.714940    0.000938
  H      4.163892   -0.473499    0.861805

 Total Charge           Charge          ....    0
 Multiplicity           Mult            ....    1
 Number of Electrons    NEL             ....   64
 Basis Dimension        Dim             ....  222

ORBITAL ENERGIES
----------------

  NO   OCC          E(Eh)            E(eV)
   0   2.0000     -18.996305      -516.9157
   1   2.0000     -18.925103      -514.9782
   2   2.0000     -10.150482      -276.2087
   3   2.0000     -10.089705      -274.5548
   4   2.0000     -10.039792      -273.1966
   5   2.0000     -10.035377      -273.0765
   6   2.0000     -10.031659      -272.9753
   7   2.0000     -10.021741      -272.7054
   8   2.0000      -1.070320       -29.1249
   9   2.0000      -0.973264       -26.4839
  10   2.0000      -0.773048       -21.0357
  11   2.0000      -0.743114       -20.2212
  12   2.0000      -0.680490       -18.5171
  13   2.0000      -0.617028       -16.7902
  14   2.0000      -0.565666       -15.3925
  15   2.0000      -0.529849       -14.4179
  16   2.0000      -0.468105       -12.7378
  17   2.0000      -0.456636       -12.4257
  18   2.0000      -0.447299       -12.1716
  19   2.0000      -0.422910       -11.5080
  20   2.0000      -0.406150       -11.0519
  21   2.0000      -0.381534       -10.3821
  22   2.0000      -0.374686       -10.1957
  23   2.0000      -0.370390       -10.0788
  24   2.0000      -0.359926        -9.7941
  25   2.0000      -0.335053        -9.1173
  26   2.0000      -0.326864        -8.8944
  27   2.0000      -0.314060        -8.5460
  28   2.0000      -0.306287        -8.3345
  29   2.0000      -0.302927        -8.2431
  30   2.0000      -0.268941        -7.3183
  31   2.0000      -0.233735        -6.3603
  32   0.0000      -0.013097        -0.3564
  33   0.0000       0.078870         2.1462
  34   0.0000       0.097013         2.6399
  35   0.0000       0.104172         2.8347
  36   0.0000       0.120044         3.2666

MULLIKEN ATOMIC CHARGES
-----------------------
   0 C :   -0.472017
   1 C :   -0.228266
   2 C :   -0.344882
   3 C :    0.417407
   4 O :   -0.441537
   5 O :   -0.172279
   6 C :   -0.159502
   7 C :   -0.443492
   8 H :    0.145789
   9 H :    0.142678
  10 H :    0.150313
  11 H :    0.137793
  12 H :    0.166852
  13 H :    0.163540
  14 H :    0.160800
  15 H :    0.142719
  16 H :    0.183233
  17 H :    0.151254
  18 H :    0.152852
  19 H :    0.146744
Sum of atomic charges:   -0.0000000

LOEWDIN ATOMIC CHARGES
----------------------
   0 C :   -0.420445
   1 C :   -0.288979
   2 C :   -0.229932
   3 C :    0.359898
   4 O :   -0.442426
   5 O :   -0.596677
   6 C :    0.031511
   7 C :   -0.386961
   8 H :    0.150945
   9 H :    0.150147
  10 H :    0.152961
  11 H :    0.155186
  12 H :    0.165702
  13 H :    0.179053
  14 H :    0.176254
  15 H :    0.174769
  16 H :    0.193564
  17 H :    0.158080
  18 H :    0.158233
  19 H :    0.159117

  Mayer bond orders larger than 0.100000
B(  0-C ,  1-C ) :   0.8914 B(  0-C ,  8-H ) :   0.9873 B(  0-C ,  9-H ) :   0.9809
B(  0-C , 10-H ) :   0.9732 B(  1-C ,  2-C ) :   0.9218 B(  1-C , 11-H ) :   0.9573
B(  1-C , 12-H ) :   0.9645 B(  2-C ,  3-C ) :   0.9692 B(  2-C , 13-H ) :   0.9698
B(  2-C , 14-H ) :   0.9808 B(  3-C ,  4-O ) :   1.8182 B(  3-C ,  5-O ) :   1.0622
B(  5-O ,  6-C ) :   0.7815 B(  6-C ,  7-C ) :   0.9488 B(  6-C , 15-H ) :   0.9473
B(  6-C , 16-H ) :   0.9665 B(  7-C , 17-H ) :   0.9738 B(  7-C , 18-H ) :   0.9701
B(  7-C , 19-H ) :   0.9678

Dispersion correction           -0.004837136
FINAL SINGLE POINT ENERGY      -386.234537343837

DIPOLE MOMENT
-------------

Method             : SCF
Type of density    : Electron Density
Multiplicity       :   1
Irrep              :   0
Energy             :  -386.2414354186058745 Eh
Relativity type    :
Basis              : AO
                                X                 Y                 Z
Electronic contribution:      3.063911371       4.608466751      -1.931850129
Nuclear contribution   :     -2.803609483      -5.384654853       1.852595757
                        -----------------------------------------
Total Dipole Moment    :      0.260301888      -0.776188103      -0.079254373
                        -----------------------------------------
Magnitude (a.u.)       :      0.822500030
Magnitude (Debye)      :      2.090628931

Rotational constants in cm-1:             0.149432             0.029769             0.027114
Rotational constants in MHz :          4479.846532           892.445957           812.848076

                             ****ORCA TERMINATED NORMALLY****
TOTAL RUN TIME: 0 days 0 hours 0 minutes 26 seconds 769 msec
