                         Program Version 6.0.0  -   RELEASE  -
|  1> ! r2scan-3c def2/J RI DEFGRID2 scfconv6 printgap
|  2> %output
|  3>     printlevel normal
|  4> end
|  5> %cpcm
|  6>     smd true
|  7>     smdsolvent "water"
|  8> end
|  9> * xyz 0 1
| 10> C -3.4989773855 -0.9161830141 0.1805753361
| 11> C -2.1642936042 -0.28054992 0.5468689896
| 12> C -1.2403605634 -0.1823000072 -0.673828697
| 13> C 0.0313208011 0.5344861979 -0.3042357777
| 14> O 0.0872873325 1.684680191 0.0822162859
| 15> O 1.0893935862 -0.251819457 -0.4315929296
| 16> C 2.3905364511 0.2547561391 -0.0838385094
| 17> C 3.1666928026 -0.8353358165 0.6336804576
| 18> H -4.0116552355 -0.3207691448 -0.5705326447
| 19> H -3.34734182 -1.9168985294 -0.2156784125
| 20> H -4.1345631556 -0.9848245114 1.0590862986
| 21> H -1.6740688414 -0.874460242 1.3208027766
| 22> H -2.3234816326 0.7233985597 0.9455020044
| 23> H -1.740297702 0.3949349755 -1.4532051474
| 24> H -0.9914231025 -1.1726082311 -1.0523521738
| 25> H 2.8852482013 0.5424577541 -1.015964
| 26> H 2.2606033562 1.1438091163 0.5411881038
| 27> H 2.6665350608 -1.1087975256 1.5586303925
| 28> H 3.2395631013 -1.7149401345 0.0009380435
| 29> H 4.1638921723 -0.4734993146 0.8618046645
| 30> *
| 31>
| 32>                          ****END OF INPUT****

CARTESIAN COORDINATES (ANGSTROEM)
---------------------------------
  C     -3.498977   -0.916183    0.180575
  C     -2.164294   -0.280550    0.546869
  C     -1.240361   -0.182300   -0.673829
  C      0.031321    0.534486   -0.304236
  O      0.087287    1.684680    0.082216
  O      1.089394   -0.251819   -0.431593
  C      2.390536    0.254756   -0.083839
  C      3.166693   -0.835336    0.633680
  H     -4.011655   -0.320769   -0.570533
  H     -3.347342   -1.916899   -0.215678
  H     -4.134563   -0.984825    1.059086
  H     -1.674069   -0.874460    1.320803
  H     -2.323482    0.723399    0.945502
  H     -1.740298    0.394935   -1.453205
  H     -0.991423   -1.172608   -1.052352
  H      2.885248    0.542458   -1.015964
  H      2.260603    1.143809    0.541188
  H      2.666535   -1.108798    1.558630
  H      3.239563   -1.714940    0.000938
  H      4.163892   -0.473499    0.861805

 Total Charge           Charge          ....    0
 Multiplicity           Mult            ....    1
 Number of Electrons    NEL             ....   64
 Basis Dimension        Dim             ....  222

ORBITAL ENERGIES
----------------

  NO   OCC          E(Eh)            E(eV)
   0   2.0000     -19.002784      -517.0920
   1   2.0000     -18.941800      -515.4326
   2   2.0000     -10.161794      -276.5165
   3   2.0000     -10.082372      -274.3553
   4   2.0000     -10.034541      -273.0538
   5   2.0000     -10.028777      -272.8969
   6   2.0000     -10.018598      -272.6199
   7   2.0000     -10.011561      -272.4284
   8   2.0000      -1.078298       -29.3420
   9   2.0000      -0.987933       -26.8830
  10   2.0000      -0.768355       -20.9080
  11   2.0000      -0.735449       -20.0126
  12   2.0000      -0.673892       -18.3375
  13   2.0000      -0.610495       -16.6124
  14   2.0000      -0.558632       -15.2011
  15   2.0000      -0.528589       -14.3836
  16   2.0000      -0.470011       -12.7897
  17   2.0000      -0.458046       -12.4641
  18   2.0000      -0.449096       -12.2205
  19   2.0000      -0.426114       -11.5951
  20   2.0000      -0.401645       -10.9293
  21   2.0000      -0.373690       -10.1686
  22   2.0000      -0.372328       -10.1316
  23   2.0000      -0.360898        -9.8205
  24   2.0000      -0.353386        -9.6161
  25   2.0000      -0.331569        -9.0224
  26   2.0000      -0.320583        -8.7235
  27   2.0000      -0.309744        -8.4286
  28   2.0000      -0.302646        -8.2354
  29   2.0000      -0.297403        -8.0928
  30   2.0000      -0.276348        -7.5198
  31   2.0000      -0.250549        -6.8178
  32   0.0000      -0.021812        -0.5935
  33   0.0000       0.080991         2.2039
  34   0.0000       0.106717         2.9039
  35   0.0000       0.113465         3.0876
  36   0.0000       0.127882         3.4798

MULLIKEN ATOMIC CHARGES
-----------------------
   0 C :   -0.516421
   1 C :   -0.224649
   2 C :   -0.364217
   3 C :    0.457120
   4 O :   -0.526857
   5 O :   -0.191057
   6 C :   -0.149615
   7 C :   -0.487199
   8 H :    0.159166
   9 H :    0.157661
  10 H :    0.161543
  11 H :    0.155487
  12 H :    0.159013
  13 H :    0.188535
  14 H :    0.176089
  15 H :    0.169443
  16 H :    0.178125
  17 H :    0.164370
  18 H :    0.165069
  19 H :    0.168393
Sum of atomic charges:   -0.0000000

LOEWDIN ATOMIC CHARGES
----------------------
   0 C :   -0.425667
   1 C :   -0.288260
   2 C :   -0.227289
   3 C :    0.369579
   4 O :   -0.504378
   5 O :   -0.598216
   6 C :    0.036312
   7 C :   -0.390318
   8 H :    0.154548
   9 H :    0.154781
  10 H :    0.156021
  11 H :    0.160526
  12 H :    0.161981
  13 H :    0.187891
  14 H :    0.183829
  15 H :    0.185058
  16 H :    0.192718
  17 H :    0.161327
  18 H :    0.161821
  19 H :    0.167737

  Mayer bond orders larger than 0.100000
B(  0-C ,  1-C ) :   0.8874 B(  0-C ,  8-H ) :   0.9843 B(  0-C ,  9-H ) :   0.9786
B(  0-C , 10-H ) :   0.9699 B(  1-C ,  2-C ) :   0.9100 B(  1-C , 11-H ) :   0.9558
B(  1-C , 12-H ) :   0.9654 B(  2-C ,  3-C ) :   0.9691 B(  2-C , 13-H ) :   0.9604
B(  2-C , 14-H ) :   0.9728 B(  3-C ,  4-O ) :   1.7518 B(  3-C ,  5-O ) :   1.0889
B(  5-O ,  6-C ) :   0.7706 B(  6-C ,  7-C ) :   0.9444 B(  6-C , 15-H ) :   0.9387
B(  6-C , 16-H ) :   0.9620 B(  7-C , 17-H ) :   0.9713 B(  7-C , 18-H ) :   0.9673
B(  7-C , 19-H ) :   0.9616

Dispersion correction           -0.004837136
FINAL SINGLE POINT ENERGY      -386.239555651536

DIPOLE MOMENT
-------------

Method             : SCF
Type of density    : Electron Density
Multiplicity       :   1
Irrep              :   0
Energy             :  -386.2464537263048214 Eh
Relativity type    :
Basis              : AO
                                X                 Y                 Z
Electronic contribution:      3.154700853       4.279385826      -2.020998366
Nuclear contribution   :     -2.803609483      -5.384654853       1.852595757
                        -----------------------------------------
Total Dipole Moment    :      0.351091370      -1.105269028      -0.168402609
                        -----------------------------------------
Magnitude (a.u.)       :      1.171855030
Magnitude (Debye)      :      2.978618773

Rotational constants in cm-1:             0.149432             0.029769             0.027114
Rotational constants in MHz :          4479.846532           892.445957           812.848076

                             ****ORCA TERMINATED NORMALLY****
TOTAL RUN TIME: 0 days 0 hours 0 minutes 36 seconds 582 msec
