                         Program Version 6.0.0  -   RELEASE  -
|  1> ! pbe def2-sv(p) def2/J RI DEFGRID1 loosescf d4 GCP(DFT/SV(P)) printgap
|  2> %output
|  3>     printlevel normal
|  4> end
|  5> * xyz 0 1
|  6> C 1.7297390979 1.1526446966 0.6399835865
|  7> C 1.3958072968 -0.2428177619 0.094856992
|  8> C 1.6716732252 -0.3127674949 -1.4100399183
|  9> N 0.0572151277 -0.7358551335 0.4192254646
| 10> C -1.0965803116 0.1574654093 0.3493520526
| 11> C -2.2707323711 -0.5601115296 1.0173329116
| 12> C -1.4613682117 0.4944947614 -1.0962427346
| 13> H 1.5240995952 1.2086783182 1.7076587604
| 14> H 2.7841280194 1.361320491 0.480614967
| 15> H 1.1490682248 1.9183242093 0.1309052427
| 16> H 2.0763061817 -0.9589219234 0.5732703188
| 17> H 1.2011327511 0.5065172567 -1.9432707503
| 18> H 1.2946388574 -1.2505745881 -1.8062965257
| 19> H 2.7433618411 -0.2622176741 -1.5854773646
| 20> H 0.0799033305 -1.1264410014 1.354327454
| 21> H -0.9201583749 1.1030730455 0.8960058523
| 22> H -2.0497228266 -0.7751701283 2.0609071932
| 23> H -3.1630209757 0.0585715463 0.9767898163
| 24> H -2.4662622716 -1.4972609189 0.5035037486
| 25> H -1.4596091482 -0.4116447326 -1.6945660456
| 26> H -0.7612010359 1.2031143921 -1.5273760229
| 27> H -2.4528583951 0.9391285228 -1.1295044964
| 28> *
| 29>
| 30>                          ****END OF INPUT****

CARTESIAN COORDINATES (ANGSTROEM)
---------------------------------
  C      1.729739    1.152645    0.639984
  C      1.395807   -0.242818    0.094857
  C      1.671673   -0.312767   -1.410040
  N      0.057215   -0.735855    0.419225
  C     -1.096580    0.157465    0.349352
  C     -2.270732   -0.560112    1.017333
  C     -1.461368    0.494495   -1.096243
  H      1.524100    1.208678    1.707659
  H      2.784128    1.361320    0.480615
  H      1.149068    1.918324    0.130905
  H      2.076306   -0.958922    0.573270
  H      1.201133    0.506517   -1.943271
  H      1.294639   -1.250575   -1.806297
  H      2.743362   -0.262218   -1.585477
  H      0.079903   -1.126441    1.354327
  H     -0.920158    1.103073    0.896006
  H     -2.049723   -0.775170    2.060907
  H     -3.163021    0.058572    0.976790
  H     -2.466262   -1.497261    0.503504
  H     -1.459609   -0.411645   -1.694566
  H     -0.761201    1.203114   -1.527376
  H     -2.452858    0.939129   -1.129504

 Total Charge           Charge          ....    0
 Multiplicity           Mult            ....    1
 Number of Electrons    NEL             ....   58
 Basis Dimension        Dim             ....  128

ORBITAL ENERGIES
----------------

  NO   OCC          E(Eh)            E(eV)
   0   2.0000     -13.958675      -379.8349
   1   2.0000      -9.914692      -269.7925
   2   2.0000      -9.913404      -269.7574
   3   2.0000      -9.871062      -268.6052
   4   2.0000      -9.871036      -268.6046
   5   2.0000      -9.866188      -268.4726
   6   2.0000      -9.863410      -268.3970
   7   2.0000      -0.814538       -22.1647
   8   2.0000      -0.704149       -19.1609
   9   2.0000      -0.654997       -17.8234
  10   2.0000      -0.610725       -16.6187
  11   2.0000      -0.605556       -16.4780
  12   2.0000      -0.530076       -14.4241
  13   2.0000      -0.483776       -13.1642
  14   2.0000      -0.441499       -12.0138
  15   2.0000      -0.423829       -11.5330
  16   2.0000      -0.396948       -10.8015
  17   2.0000      -0.376049       -10.2328
  18   2.0000      -0.362014        -9.8509
  19   2.0000      -0.349950        -9.5226
  20   2.0000      -0.341137        -9.2828
  21   2.0000      -0.338485        -9.2106
  22   2.0000      -0.328531        -8.9398
  23   2.0000      -0.310474        -8.4484
  24   2.0000      -0.301434        -8.2024
  25   2.0000      -0.290931        -7.9166
  26   2.0000      -0.283111        -7.7038
  27   2.0000      -0.274803        -7.4778
  28   2.0000      -0.168800        -4.5933
  29   0.0000       0.025574         0.6959
  30   0.0000       0.055894         1.5210
  31   0.0000       0.062455         1.6995
  32   0.0000       0.074491         2.0270
  33   0.0000       0.088610         2.4112

MULLIKEN ATOMIC CHARGES
-----------------------
   0 C :   -0.254225
   1 C :   -0.100460
   2 C :   -0.227404
   3 N :   -0.324785
   4 C :   -0.078409
   5 C :   -0.265514
   6 C :   -0.238364
   7 H :    0.093418
   8 H :    0.098726
   9 H :    0.105252
  10 H :    0.062307
  11 H :    0.093486
  12 H :    0.099289
  13 H :    0.091499
  14 H :    0.195621
  15 H :    0.056662
  16 H :    0.094139
  17 H :    0.099139
  18 H :    0.102536
  19 H :    0.098210
  20 H :    0.107099
  21 H :    0.091776
Sum of atomic charges:   -0.0000000

LOEWDIN ATOMIC CHARGES
----------------------
   0 C :   -0.348701
   1 C :   -0.104031
   2 C :   -0.340872
   3 N :   -0.252256
   4 C :   -0.101204
   5 C :   -0.335895
   6 C :   -0.339792
   7 H :    0.114510
   8 H :    0.121784
   9 H :    0.118111
  10 H :    0.111513
  11 H :    0.114192
  12 H :    0.120630
  13 H :    0.117172
  14 H :    0.206395
  15 H :    0.090565
  16 H :    0.112650
  17 H :    0.119653
  18 H :    0.121031
  19 H :    0.122011
  20 H :    0.114372
  21 H :    0.118161

  Mayer bond orders larger than 0.100000
B(  0-C ,  1-C ) :   1.0882 B(  0-C ,  7-H ) :   0.9452 B(  0-C ,  8-H ) :   0.9433
B(  0-C ,  9-H ) :   0.9389 B(  1-C ,  2-C ) :   1.1215 B(  1-C ,  3-N ) :   1.0992
B(  1-C , 10-H ) :   0.9144 B(  2-C , 11-H ) :   0.9400 B(  2-C , 12-H ) :   0.9432
B(  2-C , 13-H ) :   0.9457 B(  3-N ,  4-C ) :   1.0580 B(  3-N , 14-H ) :   0.8726
B(  4-C ,  5-C ) :   1.1100 B(  4-C ,  6-C ) :   1.1228 B(  4-C , 15-H ) :   0.8838
B(  5-C , 16-H ) :   0.9476 B(  5-C , 17-H ) :   0.9477 B(  5-C , 18-H ) :   0.9471
B(  6-C , 19-H ) :   0.9364 B(  6-C , 20-H ) :   0.9363 B(  6-C , 21-H ) :   0.9448

Dispersion correction           -0.018123476
FINAL SINGLE POINT ENERGY      -291.669762254236

DIPOLE MOMENT
-------------

Method             : SCF
Type of density    : Electron Density
Multiplicity       :   1
Irrep              :   0
Energy             :  -291.7487970861641884 Eh
Relativity type    :
Basis              : AO
                                X                 Y                 Z
Electronic contribution:      0.481790422      -1.722881857       1.262546963
Nuclear contribution   :     -0.393897792       1.887780314      -0.938224245
                        -----------------------------------------
Total Dipole Moment    :      0.087892630       0.164898457       0.324322718
                        -----------------------------------------
Magnitude (a.u.)       :      0.374301805
Magnitude (Debye)      :      0.951399579

Rotational constants in cm-1:             0.130879             0.054702             0.049321
Rotational constants in MHz :          3923.648701          1639.919116          1478.621104

                             ****ORCA TERMINATED NORMALLY****
TOTAL RUN TIME: 0 days 0 hours 0 minutes 10 seconds 220 msec
