                         Program Version 6.0.0  -   RELEASE  -
|  1> ! r2scan-3c def2/J RI DEFGRID2 scfconv6 printgap
|  2> %output
|  3>     printlevel normal
|  4> end
|  5> * xyz 0 1
|  6> C 2.291748654 1.1440017864 -0.0868819468
|  7> C 1.2562830147 0.0922418747 0.321990596
|  8> C 1.7723583321 -1.3072018779 -0.0438835209
|  9> N -0.0105396755 0.4569167211 -0.2835595108
| 10> C -1.2547396587 0.014311812 0.3184471362
| 11> C -1.7200071486 -1.3833106987 -0.1142794619
| 12> C -2.3363397733 1.0429051106 -0.0268303218
| 13> H 2.470257181 1.0957175937 -1.1582041883
| 14> H 1.9249277472 2.1362863187 0.1576213588
| 15> H 3.2308824657 0.9747296925 0.4323130488
| 16> H 1.1164725809 0.1451264925 1.4086741906
| 17> H 2.7648553238 -1.4578017823 0.3730418894
| 18> H 1.8324333403 -1.4123662113 -1.1256485499
| 19> H 1.1200119704 -2.0842218719 0.3454880004
| 20> H -0.0028720231 0.2607945198 -1.2779624585
| 21> H -1.1041923733 0.0184907653 1.4048790177
| 22> H -1.8136072766 -1.4265090631 -1.1979072473
| 23> H -1.0206358987 -2.1515538805 0.2040158445
| 24> H -2.6897860185 -1.6039352857 0.3244281839
| 25> H -2.0069306586 2.0356738249 0.2644180536
| 26> H -3.2624796236 0.8097591797 0.4910405623
| 27> H -2.5237352937 1.0416889108 -1.0977017811
| 28> *
| 29>
| 30>                          ****END OF INPUT****

CARTESIAN COORDINATES (ANGSTROEM)
---------------------------------
  C      2.291749    1.144002   -0.086882
  C      1.256283    0.092242    0.321991
  C      1.772358   -1.307202   -0.043884
  N     -0.010540    0.456917   -0.283560
  C     -1.254740    0.014312    0.318447
  C     -1.720007   -1.383311   -0.114279
  C     -2.336340    1.042905   -0.026830
  H      2.470257    1.095718   -1.158204
  H      1.924928    2.136286    0.157621
  H      3.230882    0.974730    0.432313
  H      1.116473    0.145126    1.408674
  H      2.764855   -1.457802    0.373042
  H      1.832433   -1.412366   -1.125649
  H      1.120012   -2.084222    0.345488
  H     -0.002872    0.260795   -1.277962
  H     -1.104192    0.018491    1.404879
  H     -1.813607   -1.426509   -1.197907
  H     -1.020636   -2.151554    0.204016
  H     -2.689786   -1.603935    0.324428
  H     -2.006931    2.035674    0.264418
  H     -3.262480    0.809759    0.491041
  H     -2.523735    1.041689   -1.097702

 Total Charge           Charge          ....    0
 Multiplicity           Mult            ....    1
 Number of Electrons    NEL             ....   58
 Basis Dimension        Dim             ....  213

ORBITAL ENERGIES
----------------

  NO   OCC          E(Eh)            E(eV)
   0   2.0000     -14.129705      -384.4888
   1   2.0000     -10.055743      -273.6307
   2   2.0000     -10.055689      -273.6292
   3   2.0000     -10.013220      -272.4736
   4   2.0000     -10.013094      -272.4701
   5   2.0000     -10.008502      -272.3452
   6   2.0000     -10.007922      -272.3294
   7   2.0000      -0.869805       -23.6686
   8   2.0000      -0.751458       -20.4482
   9   2.0000      -0.691940       -18.8287
  10   2.0000      -0.649619       -17.6770
  11   2.0000      -0.643693       -17.5158
  12   2.0000      -0.551058       -14.9950
  13   2.0000      -0.549389       -14.9496
  14   2.0000      -0.445567       -12.1245
  15   2.0000      -0.434290       -11.8176
  16   2.0000      -0.395925       -10.7737
  17   2.0000      -0.393953       -10.7200
  18   2.0000      -0.389311       -10.5937
  19   2.0000      -0.361602        -9.8397
  20   2.0000      -0.359629        -9.7860
  21   2.0000      -0.352734        -9.5984
  22   2.0000      -0.349452        -9.5091
  23   2.0000      -0.318607        -8.6697
  24   2.0000      -0.317372        -8.6361
  25   2.0000      -0.303500        -8.2587
  26   2.0000      -0.298547        -8.1239
  27   2.0000      -0.287291        -7.8176
  28   2.0000      -0.177181        -4.8213
  29   0.0000       0.080599         2.1932
  30   0.0000       0.098730         2.6866
  31   0.0000       0.114293         3.1101
  32   0.0000       0.116670         3.1748
  33   0.0000       0.132027         3.5926

MULLIKEN ATOMIC CHARGES
-----------------------
   0 C :   -0.463718
   1 C :   -0.077627
   2 C :   -0.458944
   3 N :   -0.214089
   4 C :   -0.072172
   5 C :   -0.460848
   6 C :   -0.460563
   7 H :    0.139204
   8 H :    0.159771
   9 H :    0.139296
  10 H :    0.134556
  11 H :    0.142683
  12 H :    0.143472
  13 H :    0.140631
  14 H :    0.212910
  15 H :    0.131443
  16 H :    0.143534
  17 H :    0.140029
  18 H :    0.143562
  19 H :    0.158731
  20 H :    0.138626
  21 H :    0.139512
Sum of atomic charges:   -0.0000000

LOEWDIN ATOMIC CHARGES
----------------------
   0 C :   -0.388607
   1 C :   -0.015569
   2 C :   -0.405374
   3 N :   -0.827244
   4 C :   -0.015338
   5 C :   -0.404464
   6 C :   -0.389147
   7 H :    0.152780
   8 H :    0.161212
   9 H :    0.150067
  10 H :    0.176804
  11 H :    0.153533
  12 H :    0.153352
  13 H :    0.150709
  14 H :    0.248973
  15 H :    0.177027
  16 H :    0.153028
  17 H :    0.151149
  18 H :    0.153659
  19 H :    0.160838
  20 H :    0.149631
  21 H :    0.152980

  Mayer bond orders larger than 0.100000
B(  0-C ,  1-C ) :   0.9726 B(  0-C ,  7-H ) :   0.9717 B(  0-C ,  8-H ) :   0.9738
B(  0-C ,  9-H ) :   0.9812 B(  1-C ,  2-C ) :   0.8796 B(  1-C ,  3-N ) :   0.8943
B(  1-C , 10-H ) :   0.9697 B(  2-C , 11-H ) :   0.9735 B(  2-C , 12-H ) :   0.9764
B(  2-C , 13-H ) :   0.9722 B(  3-N ,  4-C ) :   0.8777 B(  3-N , 14-H ) :   0.9182
B(  4-C ,  5-C ) :   0.8939 B(  4-C ,  6-C ) :   0.9744 B(  4-C , 15-H ) :   0.9633
B(  5-C , 16-H ) :   0.9780 B(  5-C , 17-H ) :   0.9691 B(  5-C , 18-H ) :   0.9752
B(  6-C , 19-H ) :   0.9736 B(  6-C , 20-H ) :   0.9819 B(  6-C , 21-H ) :   0.9713

Dispersion correction           -0.005947992
FINAL SINGLE POINT ENERGY      -292.315347206958

DIPOLE MOMENT
-------------

Method             : SCF
Type of density    : Electron Density
Multiplicity       :   1
Irrep              :   0
Energy             :  -292.3238130850260745 Eh
Relativity type    :
Basis              : AO
                                X                 Y                 Z
Electronic contribution:     -0.020622935       1.225803212       0.427554021
Nuclear contribution   :      0.033342340      -1.515563247      -0.425133823
                        -----------------------------------------
Total Dipole Moment    :      0.012719406      -0.289760034       0.002420198
                        -----------------------------------------
Magnitude (a.u.)       :      0.290049165
Magnitude (Debye)      :      0.737246388

Rotational constants in cm-1:             0.138678             0.052071             0.040734
Rotational constants in MHz :          4157.455855          1561.039467          1221.183758

                             ****ORCA TERMINATED NORMALLY****
TOTAL RUN TIME: 0 days 0 hours 0 minutes 24 seconds 426 msec
