                         Program Version 6.0.0  -   RELEASE  -
|  1> ! r2scan-3c def2/J RI DEFGRID2 scfconv6 printgap
|  2> %output
|  3>     printlevel normal
|  4> end
|  5> %cpcm
|  6>     smd true
|  7>     smdsolvent "water"
|  8> end
|  9> * xyz 0 1
| 10> C 2.291748654 1.1440017864 -0.0868819468
| 11> C 1.2562830147 0.0922418747 0.321990596
| 12> C 1.7723583321 -1.3072018779 -0.0438835209
| 13> N -0.0105396755 0.4569167211 -0.2835595108
| 14> C -1.2547396587 0.014311812 0.3184471362
| 15> C -1.7200071486 -1.3833106987 -0.1142794619
| 16> C -2.3363397733 1.0429051106 -0.0268303218
| 17> H 2.470257181 1.0957175937 -1.1582041883
| 18> H 1.9249277472 2.1362863187 0.1576213588
| 19> H 3.2308824657 0.9747296925 0.4323130488
| 20> H 1.1164725809 0.1451264925 1.4086741906
| 21> H 2.7648553238 -1.4578017823 0.3730418894
| 22> H 1.8324333403 -1.4123662113 -1.1256485499
| 23> H 1.1200119704 -2.0842218719 0.3454880004
| 24> H -0.0028720231 0.2607945198 -1.2779624585
| 25> H -1.1041923733 0.0184907653 1.4048790177
| 26> H -1.8136072766 -1.4265090631 -1.1979072473
| 27> H -1.0206358987 -2.1515538805 0.2040158445
| 28> H -2.6897860185 -1.6039352857 0.3244281839
| 29> H -2.0069306586 2.0356738249 0.2644180536
| 30> H -3.2624796236 0.8097591797 0.4910405623
| 31> H -2.5237352937 1.0416889108 -1.0977017811
| 32> *
| 33>
| 34>                          ****END OF INPUT****

CARTESIAN COORDINATES (ANGSTROEM)
---------------------------------
  C      2.291749    1.144002   -0.086882
  C      1.256283    0.092242    0.321991
  C      1.772358   -1.307202   -0.043884
  N     -0.010540    0.456917   -0.283560
  C     -1.254740    0.014312    0.318447
  C     -1.720007   -1.383311   -0.114279
  C     -2.336340    1.042905   -0.026830
  H      2.470257    1.095718   -1.158204
  H      1.924928    2.136286    0.157621
  H      3.230882    0.974730    0.432313
  H      1.116473    0.145126    1.408674
  H      2.764855   -1.457802    0.373042
  H      1.832433   -1.412366   -1.125649
  H      1.120012   -2.084222    0.345488
  H     -0.002872    0.260795   -1.277962
  H     -1.104192    0.018491    1.404879
  H     -1.813607   -1.426509   -1.197907
  H     -1.020636   -2.151554    0.204016
  H     -2.689786   -1.603935    0.324428
  H     -2.006931    2.035674    0.264418
  H     -3.262480    0.809759    0.491041
  H     -2.523735    1.041689   -1.097702

 Total Charge           Charge          ....    0
 Multiplicity           Mult            ....    1
 Number of Electrons    NEL             ....   58
 Basis Dimension        Dim             ....  213

ORBITAL ENERGIES
----------------

  NO   OCC          E(Eh)            E(eV)
   0   2.0000     -14.123288      -384.3142
   1   2.0000     -10.049100      -273.4499
   2   2.0000     -10.049059      -273.4488
   3   2.0000     -10.003835      -272.2182
   4   2.0000     -10.003695      -272.2144
   5   2.0000     -10.003456      -272.2079
   6   2.0000     -10.003159      -272.1998
   7   2.0000      -0.863572       -23.4990
   8   2.0000      -0.744864       -20.2688
   9   2.0000      -0.684984       -18.6394
  10   2.0000      -0.643768       -17.5178
  11   2.0000      -0.637345       -17.3430
  12   2.0000      -0.544996       -14.8301
  13   2.0000      -0.541623       -14.7383
  14   2.0000      -0.438095       -11.9212
  15   2.0000      -0.427964       -11.6455
  16   2.0000      -0.390464       -10.6251
  17   2.0000      -0.387603       -10.5472
  18   2.0000      -0.381411       -10.3787
  19   2.0000      -0.355605        -9.6765
  20   2.0000      -0.352498        -9.5919
  21   2.0000      -0.345568        -9.4034
  22   2.0000      -0.341682        -9.2976
  23   2.0000      -0.312451        -8.5022
  24   2.0000      -0.311998        -8.4899
  25   2.0000      -0.294959        -8.0262
  26   2.0000      -0.292101        -7.9485
  27   2.0000      -0.280383        -7.6296
  28   2.0000      -0.174950        -4.7606
  29   0.0000       0.088744         2.4149
  30   0.0000       0.112615         3.0644
  31   0.0000       0.122071         3.3217
  32   0.0000       0.124545         3.3890
  33   0.0000       0.135902         3.6981

MULLIKEN ATOMIC CHARGES
-----------------------
   0 C :   -0.521877
   1 C :   -0.038441
   2 C :   -0.519965
   3 N :   -0.289953
   4 C :   -0.033098
   5 C :   -0.519967
   6 C :   -0.521473
   7 H :    0.158794
   8 H :    0.157141
   9 H :    0.155106
  10 H :    0.150920
  11 H :    0.154125
  12 H :    0.160458
  13 H :    0.156522
  14 H :    0.262346
  15 H :    0.148621
  16 H :    0.160593
  17 H :    0.155061
  18 H :    0.155047
  19 H :    0.156822
  20 H :    0.154387
  21 H :    0.158829
Sum of atomic charges:   -0.0000000

LOEWDIN ATOMIC CHARGES
----------------------
   0 C :   -0.399680
   1 C :   -0.014458
   2 C :   -0.413056
   3 N :   -0.841917
   4 C :   -0.014082
   5 C :   -0.412103
   6 C :   -0.400496
   7 H :    0.157040
   8 H :    0.157283
   9 H :    0.154829
  10 H :    0.180943
  11 H :    0.156231
  12 H :    0.157598
  13 H :    0.154833
  14 H :    0.258467
  15 H :    0.181388
  16 H :    0.157420
  17 H :    0.155013
  18 H :    0.156369
  19 H :    0.157018
  20 H :    0.154427
  21 H :    0.156932

  Mayer bond orders larger than 0.100000
B(  0-C ,  1-C ) :   0.9438 B(  0-C ,  7-H ) :   0.9735 B(  0-C ,  8-H ) :   0.9750
B(  0-C ,  9-H ) :   0.9768 B(  1-C ,  2-C ) :   0.8659 B(  1-C ,  3-N ) :   0.8978
B(  1-C , 10-H ) :   0.9711 B(  2-C , 11-H ) :   0.9711 B(  2-C , 12-H ) :   0.9764
B(  2-C , 13-H ) :   0.9695 B(  3-N ,  4-C ) :   0.8801 B(  3-N , 14-H ) :   0.9030
B(  4-C ,  5-C ) :   0.8787 B(  4-C ,  6-C ) :   0.9449 B(  4-C , 15-H ) :   0.9656
B(  5-C , 16-H ) :   0.9774 B(  5-C , 17-H ) :   0.9671 B(  5-C , 18-H ) :   0.9727
B(  6-C , 19-H ) :   0.9751 B(  6-C , 20-H ) :   0.9773 B(  6-C , 21-H ) :   0.9736

Dispersion correction           -0.005947992
FINAL SINGLE POINT ENERGY      -292.316989604499

DIPOLE MOMENT
-------------

Method             : SCF
Type of density    : Electron Density
Multiplicity       :   1
Irrep              :   0
Energy             :  -292.3254554825667810 Eh
Relativity type    :
Basis              : AO
                                X                 Y                 Z
Electronic contribution:     -0.015002681       1.022225189       0.407541701
Nuclear contribution   :      0.033342340      -1.515563247      -0.425133823
                        -----------------------------------------
Total Dipole Moment    :      0.018339659      -0.493338058      -0.017592122
                        -----------------------------------------
Magnitude (a.u.)       :      0.493992172
Magnitude (Debye)      :      1.255628314

Rotational constants in cm-1:             0.138678             0.052071             0.040734
Rotational constants in MHz :          4157.455855          1561.039467          1221.183758

                             ****ORCA TERMINATED NORMALLY****
TOTAL RUN TIME: 0 days 0 hours 0 minutes 32 seconds 794 msec
