                         Program Version 6.0.0  -   RELEASE  -
|  1> ! r2scan-3c def2/J RI DEFGRID2 scfconv6 printgap
|  2> %output
|  3>     printlevel normal
|  4> end
|  5> * xyz 0 1
|  6> C -2.307551854 -1.0377577785 0.9342088912
|  7> C -2.0262955091 -0.7123008481 -0.5277269935
|  8> C -1.4608856114 0.7024903447 -0.6935011558
|  9> C -0.1160184973 0.8502540321 -0.0290923503
| 10> O 0.152853829 1.6876309895 0.8096351231
| 11> O 0.7587494598 -0.0405056574 -0.4710616579
| 12> C 2.0849448559 -0.0229039349 0.0812564678
| 13> C 2.7384111319 -1.3624299696 -0.2006487208
| 14> H -1.3966149124 -0.9653663984 1.5257520793
| 15> H -3.0331104706 -0.3410495842 1.3476718749
| 16> H -2.701788269 -2.0457878707 1.0304483692
| 17> H -2.9511647648 -0.7855230511 -1.1007237797
| 18> H -1.3124751168 -1.4286791298 -0.9356142962
| 19> H -2.1329282119 1.4421519298 -0.2579359414
| 20> H -1.328273674 0.9190562307 -1.7545939243
| 21> H 2.6364718527 0.7986153676 -0.3873450841
| 22> H 2.0127520353 0.180809852 1.1548443839
| 23> H 3.7514974525 -1.3558205455 0.1877290089
| 24> H 2.1781519428 -2.1615642474 0.2761608014
| 25> H 2.7650319917 -1.5431110878 -1.2710699681
| 26> *
| 27>
| 28>                          ****END OF INPUT****

CARTESIAN COORDINATES (ANGSTROEM)
---------------------------------
  C     -2.307552   -1.037758    0.934209
  C     -2.026296   -0.712301   -0.527727
  C     -1.460886    0.702490   -0.693501
  C     -0.116018    0.850254   -0.029092
  O      0.152854    1.687631    0.809635
  O      0.758749   -0.040506   -0.471062
  C      2.084945   -0.022904    0.081256
  C      2.738411   -1.362430   -0.200649
  H     -1.396615   -0.965366    1.525752
  H     -3.033110   -0.341050    1.347672
  H     -2.701788   -2.045788    1.030448
  H     -2.951165   -0.785523   -1.100724
  H     -1.312475   -1.428679   -0.935614
  H     -2.132928    1.442152   -0.257936
  H     -1.328274    0.919056   -1.754594
  H      2.636472    0.798615   -0.387345
  H      2.012752    0.180810    1.154844
  H      3.751497   -1.355821    0.187729
  H      2.178152   -2.161564    0.276161
  H      2.765032   -1.543111   -1.271070

 Total Charge           Charge          ....    0
 Multiplicity           Mult            ....    1
 Number of Electrons    NEL             ....   64
 Basis Dimension        Dim             ....  222

ORBITAL ENERGIES
----------------

  NO   OCC          E(Eh)            E(eV)
   0   2.0000     -18.996733      -516.9274
   1   2.0000     -18.925671      -514.9937
   2   2.0000     -10.150306      -276.2039
   3   2.0000     -10.091877      -274.6139
   4   2.0000     -10.040828      -273.2248
   5   2.0000     -10.035942      -273.0919
   6   2.0000     -10.032813      -273.0067
   7   2.0000     -10.020389      -272.6686
   8   2.0000      -1.071990       -29.1703
   9   2.0000      -0.972666       -26.4676
  10   2.0000      -0.776227       -21.1222
  11   2.0000      -0.741779       -20.1848
  12   2.0000      -0.677917       -18.4471
  13   2.0000      -0.616816       -16.7844
  14   2.0000      -0.570417       -15.5218
  15   2.0000      -0.533446       -14.5158
  16   2.0000      -0.467262       -12.7148
  17   2.0000      -0.460107       -12.5201
  18   2.0000      -0.437578       -11.9071
  19   2.0000      -0.425597       -11.5811
  20   2.0000      -0.407503       -11.0887
  21   2.0000      -0.383064       -10.4237
  22   2.0000      -0.377764       -10.2795
  23   2.0000      -0.370657       -10.0861
  24   2.0000      -0.354356        -9.6425
  25   2.0000      -0.337036        -9.1712
  26   2.0000      -0.326229        -8.8771
  27   2.0000      -0.312941        -8.5156
  28   2.0000      -0.310672        -8.4538
  29   2.0000      -0.307164        -8.3584
  30   2.0000      -0.271128        -7.3778
  31   2.0000      -0.230089        -6.2610
  32   0.0000      -0.014083        -0.3832
  33   0.0000       0.070946         1.9305
  34   0.0000       0.094040         2.5590
  35   0.0000       0.113417         3.0862
  36   0.0000       0.117798         3.2054

MULLIKEN ATOMIC CHARGES
-----------------------
   0 C :   -0.481743
   1 C :   -0.217999
   2 C :   -0.325846
   3 C :    0.349785
   4 O :   -0.421724
   5 O :   -0.159424
   6 C :   -0.147487
   7 C :   -0.443296
   8 H :    0.152626
   9 H :    0.149001
  10 H :    0.147578
  11 H :    0.144624
  12 H :    0.151189
  13 H :    0.171114
  14 H :    0.160949
  15 H :    0.148266
  16 H :    0.170300
  17 H :    0.147571
  18 H :    0.152100
  19 H :    0.152417
Sum of atomic charges:   -0.0000000

LOEWDIN ATOMIC CHARGES
----------------------
   0 C :   -0.414812
   1 C :   -0.294759
   2 C :   -0.230868
   3 C :    0.350527
   4 O :   -0.428342
   5 O :   -0.603669
   6 C :    0.033926
   7 C :   -0.387343
   8 H :    0.155180
   9 H :    0.153177
  10 H :    0.151965
  11 H :    0.152942
  12 H :    0.164620
  13 H :    0.177988
  14 H :    0.179904
  15 H :    0.175682
  16 H :    0.186436
  17 H :    0.159708
  18 H :    0.158631
  19 H :    0.159106

  Mayer bond orders larger than 0.100000
B(  0-C ,  1-C ) :   0.9123 B(  0-C ,  8-H ) :   0.9713 B(  0-C ,  9-H ) :   0.9785
B(  0-C , 10-H ) :   0.9703 B(  1-C ,  2-C ) :   0.8865 B(  1-C , 11-H ) :   0.9640
B(  1-C , 12-H ) :   0.9699 B(  2-C ,  3-C ) :   0.9611 B(  2-C , 13-H ) :   1.0066
B(  2-C , 14-H ) :   0.9433 B(  3-C ,  4-O ) :   1.8338 B(  3-C ,  5-O ) :   1.0545
B(  5-O ,  6-C ) :   0.7989 B(  6-C ,  7-C ) :   0.9429 B(  6-C , 15-H ) :   0.9474
B(  6-C , 16-H ) :   0.9625 B(  7-C , 17-H ) :   0.9681 B(  7-C , 18-H ) :   0.9744
B(  7-C , 19-H ) :   0.9690

Dispersion correction           -0.005144353
FINAL SINGLE POINT ENERGY      -386.235629419246

DIPOLE MOMENT
-------------

Method             : SCF
Type of density    : Electron Density
Multiplicity       :   1
Irrep              :   0
Energy             :  -386.2421639353425462 Eh
Relativity type    :
Basis              : AO
                                X                 Y                 Z
Electronic contribution:      1.544415707       6.038790084      -0.333803932
Nuclear contribution   :     -1.405412953      -6.811310649      -0.168236896
                        -----------------------------------------
Total Dipole Moment    :      0.139002754      -0.772520565      -0.502040828
                        -----------------------------------------
Magnitude (a.u.)       :      0.931748239
Magnitude (Debye)      :      2.368315812

Rotational constants in cm-1:             0.099817             0.040933             0.034564
Rotational constants in MHz :          2992.437403          1227.128296          1036.203564

                             ****ORCA TERMINATED NORMALLY****
TOTAL RUN TIME: 0 days 0 hours 0 minutes 31 seconds 163 msec
