                         Program Version 6.0.0  -   RELEASE  -
|  1> ! r2scan-3c def2/J RI DEFGRID2 scfconv6 printgap
|  2> %output
|  3>     printlevel normal
|  4> end
|  5> %cpcm
|  6>     smd true
|  7>     smdsolvent "water"
|  8> end
|  9> * xyz 0 1
| 10> C -2.307551854 -1.0377577785 0.9342088912
| 11> C -2.0262955091 -0.7123008481 -0.5277269935
| 12> C -1.4608856114 0.7024903447 -0.6935011558
| 13> C -0.1160184973 0.8502540321 -0.0290923503
| 14> O 0.152853829 1.6876309895 0.8096351231
| 15> O 0.7587494598 -0.0405056574 -0.4710616579
| 16> C 2.0849448559 -0.0229039349 0.0812564678
| 17> C 2.7384111319 -1.3624299696 -0.2006487208
| 18> H -1.3966149124 -0.9653663984 1.5257520793
| 19> H -3.0331104706 -0.3410495842 1.3476718749
| 20> H -2.701788269 -2.0457878707 1.0304483692
| 21> H -2.9511647648 -0.7855230511 -1.1007237797
| 22> H -1.3124751168 -1.4286791298 -0.9356142962
| 23> H -2.1329282119 1.4421519298 -0.2579359414
| 24> H -1.328273674 0.9190562307 -1.7545939243
| 25> H 2.6364718527 0.7986153676 -0.3873450841
| 26> H 2.0127520353 0.180809852 1.1548443839
| 27> H 3.7514974525 -1.3558205455 0.1877290089
| 28> H 2.1781519428 -2.1615642474 0.2761608014
| 29> H 2.7650319917 -1.5431110878 -1.2710699681
| 30> *
| 31>
| 32>                          ****END OF INPUT****

CARTESIAN COORDINATES (ANGSTROEM)
---------------------------------
  C     -2.307552   -1.037758    0.934209
  C     -2.026296   -0.712301   -0.527727
  C     -1.460886    0.702490   -0.693501
  C     -0.116018    0.850254   -0.029092
  O      0.152854    1.687631    0.809635
  O      0.758749   -0.040506   -0.471062
  C      2.084945   -0.022904    0.081256
  C      2.738411   -1.362430   -0.200649
  H     -1.396615   -0.965366    1.525752
  H     -3.033110   -0.341050    1.347672
  H     -2.701788   -2.045788    1.030448
  H     -2.951165   -0.785523   -1.100724
  H     -1.312475   -1.428679   -0.935614
  H     -2.132928    1.442152   -0.257936
  H     -1.328274    0.919056   -1.754594
  H      2.636472    0.798615   -0.387345
  H      2.012752    0.180810    1.154844
  H      3.751497   -1.355821    0.187729
  H      2.178152   -2.161564    0.276161
  H      2.765032   -1.543111   -1.271070

 Total Charge           Charge          ....    0
 Multiplicity           Mult            ....    1
 Number of Electrons    NEL             ....   64
 Basis Dimension        Dim             ....  222

ORBITAL ENERGIES
----------------

  NO   OCC          E(Eh)            E(eV)
   0   2.0000     -19.002297      -517.0788
   1   2.0000     -18.942912      -515.4628
   2   2.0000     -10.161939      -276.5204
   3   2.0000     -10.083910      -274.3971
   4   2.0000     -10.035577      -273.0819
   5   2.0000     -10.027864      -272.8721
   6   2.0000     -10.018765      -272.6245
   7   2.0000     -10.011674      -272.4315
   8   2.0000      -1.079508       -29.3749
   9   2.0000      -0.987603       -26.8741
  10   2.0000      -0.771296       -20.9880
  11   2.0000      -0.733349       -19.9554
  12   2.0000      -0.671834       -18.2815
  13   2.0000      -0.609863       -16.5952
  14   2.0000      -0.564161       -15.3516
  15   2.0000      -0.531538       -14.4639
  16   2.0000      -0.466352       -12.6901
  17   2.0000      -0.457476       -12.4485
  18   2.0000      -0.452164       -12.3040
  19   2.0000      -0.420285       -11.4365
  20   2.0000      -0.402161       -10.9434
  21   2.0000      -0.380050       -10.3417
  22   2.0000      -0.370679       -10.0867
  23   2.0000      -0.363552        -9.8927
  24   2.0000      -0.348838        -9.4924
  25   2.0000      -0.331619        -9.0238
  26   2.0000      -0.319893        -8.7047
  27   2.0000      -0.311673        -8.4811
  28   2.0000      -0.306128        -8.3302
  29   2.0000      -0.300982        -8.1901
  30   2.0000      -0.277042        -7.5387
  31   2.0000      -0.247035        -6.7222
  32   0.0000      -0.023091        -0.6283
  33   0.0000       0.075716         2.0603
  34   0.0000       0.103474         2.8157
  35   0.0000       0.120192         3.2706
  36   0.0000       0.125022         3.4020

MULLIKEN ATOMIC CHARGES
-----------------------
   0 C :   -0.526898
   1 C :   -0.214528
   2 C :   -0.345270
   3 C :    0.392725
   4 O :   -0.512353
   5 O :   -0.173240
   6 C :   -0.147470
   7 C :   -0.490095
   8 H :    0.160992
   9 H :    0.162323
  10 H :    0.161587
  11 H :    0.162111
  12 H :    0.154055
  13 H :    0.180077
  14 H :    0.191724
  15 H :    0.172014
  16 H :    0.173057
  17 H :    0.168924
  18 H :    0.165742
  19 H :    0.164525
Sum of atomic charges:    0.0000000

LOEWDIN ATOMIC CHARGES
----------------------
   0 C :   -0.422810
   1 C :   -0.291391
   2 C :   -0.229005
   3 C :    0.360260
   4 O :   -0.492723
   5 O :   -0.602877
   6 C :    0.036843
   7 C :   -0.390127
   8 H :    0.155854
   9 H :    0.155969
  10 H :    0.156467
  11 H :    0.159953
  12 H :    0.165191
  13 H :    0.181635
  14 H :    0.192023
  15 H :    0.183677
  16 H :    0.188139
  17 H :    0.168264
  18 H :    0.162140
  19 H :    0.162515

  Mayer bond orders larger than 0.100000
B(  0-C ,  1-C ) :   0.8993 B(  0-C ,  8-H ) :   0.9691 B(  0-C ,  9-H ) :   0.9773
B(  0-C , 10-H ) :   0.9663 B(  1-C ,  2-C ) :   0.8773 B(  1-C , 11-H ) :   0.9607
B(  1-C , 12-H ) :   0.9699 B(  2-C ,  3-C ) :   0.9595 B(  2-C , 13-H ) :   1.0025
B(  2-C , 14-H ) :   0.9326 B(  3-C ,  4-O ) :   1.7586 B(  3-C ,  5-O ) :   1.0867
B(  5-O ,  6-C ) :   0.7852 B(  6-C ,  7-C ) :   0.9434 B(  6-C , 15-H ) :   0.9385
B(  6-C , 16-H ) :   0.9569 B(  7-C , 17-H ) :   0.9618 B(  7-C , 18-H ) :   0.9727
B(  7-C , 19-H ) :   0.9662

Dispersion correction           -0.005144353
FINAL SINGLE POINT ENERGY      -386.241373745633

DIPOLE MOMENT
-------------

Method             : SCF
Type of density    : Electron Density
Multiplicity       :   1
Irrep              :   0
Energy             :  -386.2479082617287531 Eh
Relativity type    :
Basis              : AO
                                X                 Y                 Z
Electronic contribution:      1.555883811       5.764955711      -0.570258176
Nuclear contribution   :     -1.405412953      -6.811310649      -0.168236896
                        -----------------------------------------
Total Dipole Moment    :      0.150470858      -1.046354938      -0.738495072
                        -----------------------------------------
Magnitude (a.u.)       :      1.289525148
Magnitude (Debye)      :      3.277712442

Rotational constants in cm-1:             0.099817             0.040933             0.034564
Rotational constants in MHz :          2992.437403          1227.128296          1036.203564

                             ****ORCA TERMINATED NORMALLY****
TOTAL RUN TIME: 0 days 0 hours 0 minutes 37 seconds 766 msec
