                         Program Version 6.0.0  -   RELEASE  -
|  1> ! r2scan-3c def2/J RI DEFGRID2 scfconv6 printgap
|  2> %output
|  3>     printlevel normal
|  4> end
|  5> * xyz 0 1
|  6> C -4.6975845126 -0.9959883893 -0.2473099308
|  7> C -3.9992345304 -2.1878378984 -0.1115057476
|  8> C -2.6240966213 -2.1722303423 0.0306856572
|  9> C -1.9222742406 -0.9684945154 0.0386914963
| 10> C -2.6280782495 0.2319859038 -0.0988509978
| 11> C -4.0144262398 0.2053719944 -0.2404952741
| 12> C -1.9249381351 1.5207732725 -0.0965936929
| 13> O -2.5316202103 2.5837001517 -0.2131193383
| 14> C -0.4590905722 1.4787402417 0.0480569294
| 15> C 0.2058019765 2.6924750239 0.0253949776
| 16> C 1.5919469839 2.7382139339 0.1483803234
| 17> C 2.30829475 1.5811296362 0.2966308101
| 18> C 1.6724650352 0.3161139722 0.3361022276
| 19> C 0.250374473 0.2636888514 0.200239578
| 20> C -0.4548771128 -1.0003936272 0.1986985422
| 21> O 0.1110127044 -2.101362049 0.3181820611
| 22> N 2.3798696294 -0.8073820589 0.5199589216
| 23> C 3.8123196711 -0.916597891 0.5726789971
| 24> C 4.4539318111 -0.8970321658 -0.8243578457
| 25> O 5.85230745 -0.9717485427 -0.6528580947
| 26> H -5.7704324538 -1.0052438302 -0.3579311241
| 27> H -4.527700668 -3.1282014661 -0.1161187868
| 28> H -2.0629443415 -3.0885462915 0.1390294136
| 29> H -4.5315053008 1.147849212 -0.3441454485
| 30> H -0.376231463 3.5934780501 -0.0924249143
| 31> H 2.0993622151 3.6897597967 0.1244975653
| 32> H 3.379915614 1.6316714146 0.3883025768
| 33> H 1.8382606921 -1.6685669078 0.4794982964
| 34> H 4.065999048 -1.8617859733 1.0537498272
| 35> H 4.2483190816 -0.1122478872 1.1692413706
| 36> H 4.1743842573 0.0282038324 -1.3460340305
| 37> H 4.0837287384 -1.7511455244 -1.4055489921
| 38> H 6.2839445482 -1.0080882273 -1.5166071312
| 39> *
| 40>
| 41>                          ****END OF INPUT****

CARTESIAN COORDINATES (ANGSTROEM)
---------------------------------
  C     -4.697585   -0.995988   -0.247310
  C     -3.999235   -2.187838   -0.111506
  C     -2.624097   -2.172230    0.030686
  C     -1.922274   -0.968495    0.038691
  C     -2.628078    0.231986   -0.098851
  C     -4.014426    0.205372   -0.240495
  C     -1.924938    1.520773   -0.096594
  O     -2.531620    2.583700   -0.213119
  C     -0.459091    1.478740    0.048057
  C      0.205802    2.692475    0.025395
  C      1.591947    2.738214    0.148380
  C      2.308295    1.581130    0.296631
  C      1.672465    0.316114    0.336102
  C      0.250374    0.263689    0.200240
  C     -0.454877   -1.000394    0.198699
  O      0.111013   -2.101362    0.318182
  N      2.379870   -0.807382    0.519959
  C      3.812320   -0.916598    0.572679
  C      4.453932   -0.897032   -0.824358
  O      5.852307   -0.971749   -0.652858
  H     -5.770432   -1.005244   -0.357931
  H     -4.527701   -3.128201   -0.116119
  H     -2.062944   -3.088546    0.139029
  H     -4.531505    1.147849   -0.344145
  H     -0.376231    3.593478   -0.092425
  H      2.099362    3.689760    0.124498
  H      3.379916    1.631671    0.388303
  H      1.838261   -1.668567    0.479498
  H      4.065999   -1.861786    1.053750
  H      4.248319   -0.112248    1.169241
  H      4.174384    0.028204   -1.346034
  H      4.083729   -1.751146   -1.405549
  H      6.283945   -1.008088   -1.516607

 Total Charge           Charge          ....    0
 Multiplicity           Mult            ....    1
 Number of Electrons    NEL             ....  140
 Basis Dimension        Dim             ....  465

ORBITAL ENERGIES
----------------

  NO   OCC          E(Eh)            E(eV)
   0   2.0000     -18.965483      -516.0770
   1   2.0000     -18.942527      -515.4524
   2   2.0000     -18.937662      -515.3200
   3   2.0000     -14.190900      -386.1540
   4   2.0000     -10.124871      -275.5118
   5   2.0000     -10.121853      -275.4296
   6   2.0000     -10.104544      -274.9586
   7   2.0000     -10.092735      -274.6373
   8   2.0000     -10.081403      -274.3289
   9   2.0000     -10.059336      -273.7285
  10   2.0000     -10.058962      -273.7183
  11   2.0000     -10.057499      -273.6785
  12   2.0000     -10.057044      -273.6661
  13   2.0000     -10.055629      -273.6276
  14   2.0000     -10.054011      -273.5836
  15   2.0000     -10.053058      -273.5576
  16   2.0000     -10.051386      -273.5121
  17   2.0000     -10.050392      -273.4851
  18   2.0000     -10.049698      -273.4662
  19   2.0000     -10.041074      -273.2315
  20   2.0000      -1.007116       -27.4050
  21   2.0000      -1.002462       -27.2784
  22   2.0000      -1.001938       -27.2641
  23   2.0000      -0.930499       -25.3202
  24   2.0000      -0.850884       -23.1537
  25   2.0000      -0.834515       -22.7083
  26   2.0000      -0.774657       -21.0795
  27   2.0000      -0.749275       -20.3888
  28   2.0000      -0.737252       -20.0616
  29   2.0000      -0.732239       -19.9252
  30   2.0000      -0.700222       -19.0540
  31   2.0000      -0.651919       -17.7396
  32   2.0000      -0.632409       -17.2087
  33   2.0000      -0.613359       -16.6903
  34   2.0000      -0.603363       -16.4184
  35   2.0000      -0.569357       -15.4930
  36   2.0000      -0.553010       -15.0482
  37   2.0000      -0.524441       -14.2708
  38   2.0000      -0.520232       -14.1562
  39   2.0000      -0.502071       -13.6620
  40   2.0000      -0.489361       -13.3162
  41   2.0000      -0.461878       -12.5683
  42   2.0000      -0.456501       -12.4220
  43   2.0000      -0.452741       -12.3197
  44   2.0000      -0.441135       -12.0039
  45   2.0000      -0.429761       -11.6944
  46   2.0000      -0.425877       -11.5887
  47   2.0000      -0.423463       -11.5230
  48   2.0000      -0.409892       -11.1537
  49   2.0000      -0.407199       -11.0805
  50   2.0000      -0.403494       -10.9796
  51   2.0000      -0.395912       -10.7733
  52   2.0000      -0.386599       -10.5199
  53   2.0000      -0.373914       -10.1747
  54   2.0000      -0.366042        -9.9605
  55   2.0000      -0.360680        -9.8146
  56   2.0000      -0.348479        -9.4826
  57   2.0000      -0.346696        -9.4341
  58   2.0000      -0.337503        -9.1839
  59   2.0000      -0.331665        -9.0251
  60   2.0000      -0.323786        -8.8107
  61   2.0000      -0.323085        -8.7916
  62   2.0000      -0.291375        -7.9287
  63   2.0000      -0.261432        -7.1139
  64   2.0000      -0.254969        -6.9381
  65   2.0000      -0.250973        -6.8293
  66   2.0000      -0.250350        -6.8124
  67   2.0000      -0.234542        -6.3822
  68   2.0000      -0.222304        -6.0492
  69   2.0000      -0.198262        -5.3950
  70   0.0000      -0.129456        -3.5227
  71   0.0000      -0.079354        -2.1593
  72   0.0000      -0.050257        -1.3676
  73   0.0000      -0.028920        -0.7869
  74   0.0000       0.023048         0.6272

MULLIKEN ATOMIC CHARGES
-----------------------
   0 C :   -0.131231
   1 C :   -0.126997
   2 C :   -0.227206
   3 C :    0.187386
   4 C :    0.138164
   5 C :   -0.215395
   6 C :    0.035819
   7 O :   -0.354134
   8 C :    0.197160
   9 C :   -0.249967
  10 C :   -0.138482
  11 C :   -0.298584
  12 C :    0.298143
  13 C :   -0.146055
  14 C :    0.013505
  15 O :   -0.437669
  16 N :   -0.036629
  17 C :   -0.336118
  18 C :   -0.082941
  19 O :   -0.424359
  20 H :    0.149047
  21 H :    0.148760
  22 H :    0.182379
  23 H :    0.181867
  24 H :    0.185185
  25 H :    0.147613
  26 H :    0.146865
  27 H :    0.307192
  28 H :    0.165557
  29 H :    0.159620
  30 H :    0.132598
  31 H :    0.129042
  32 H :    0.299863
Sum of atomic charges:    0.0000000

LOEWDIN ATOMIC CHARGES
----------------------
   0 C :   -0.143201
   1 C :   -0.140130
   2 C :   -0.101741
   3 C :   -0.025773
   4 C :   -0.035654
   5 C :   -0.096934
   6 C :    0.269725
   7 O :   -0.479526
   8 C :   -0.023837
   9 C :   -0.123314
  10 C :   -0.126844
  11 C :   -0.140147
  12 C :    0.201699
  13 C :   -0.034966
  14 C :    0.270710
  15 O :   -0.537582
  16 N :   -0.675520
  17 C :   -0.005753
  18 C :    0.035251
  19 O :   -0.619103
  20 H :    0.170638
  21 H :    0.170534
  22 H :    0.192973
  23 H :    0.191844
  24 H :    0.193832
  25 H :    0.172201
  26 H :    0.176668
  27 H :    0.296477
  28 H :    0.191995
  29 H :    0.183908
  30 H :    0.161430
  31 H :    0.159802
  32 H :    0.270339

  Mayer bond orders larger than 0.100000
B(  0-C ,  1-C ) :   1.3217 B(  0-C ,  5-C ) :   1.3567 B(  0-C , 20-H ) :   0.9558
B(  1-C ,  2-C ) :   1.3495 B(  1-C , 21-H ) :   0.9556 B(  2-C ,  3-C ) :   1.3555
B(  2-C , 15-O ) :   0.1030 B(  2-C , 22-H ) :   0.9601 B(  3-C ,  4-C ) :   1.5202
B(  3-C , 14-C ) :   0.9174 B(  3-C , 15-O ) :  -0.2037 B(  4-C ,  5-C ) :   1.3499
B(  4-C ,  6-C ) :   0.8540 B(  4-C ,  7-O ) :  -0.2228 B(  5-C ,  7-O ) :   0.1083
B(  5-C , 23-H ) :   0.9634 B(  6-C ,  7-O ) :   2.0990 B(  6-C ,  8-C ) :   0.8634
B(  7-O ,  8-C ) :  -0.2160 B(  7-O ,  9-C ) :   0.1227 B(  8-C ,  9-C ) :   1.4026
B(  8-C , 13-C ) :   1.2784 B(  9-C , 10-C ) :   1.2475 B(  9-C , 24-H ) :   0.9664
B( 10-C , 11-C ) :   1.3866 B( 10-C , 25-H ) :   0.9673 B( 11-C , 12-C ) :   1.1110
B( 11-C , 26-H ) :   0.9527 B( 12-C , 13-C ) :   1.2417 B( 12-C , 14-C ) :  -0.1093
B( 12-C , 16-N ) :   1.2995 B( 13-C , 14-C ) :   0.9422 B( 13-C , 15-O ) :  -0.1336
B( 14-C , 15-O ) :   1.8933 B( 16-N , 17-C ) :   0.8482 B( 16-N , 27-H ) :   0.8313
B( 17-C , 18-C ) :   0.9285 B( 17-C , 28-H ) :   0.9616 B( 17-C , 29-H ) :   0.9696
B( 18-C , 19-O ) :   0.9550 B( 18-C , 30-H ) :   0.9586 B( 18-C , 31-H ) :   0.9576
B( 19-O , 32-H ) :   0.8969

Dispersion correction           -0.015601411
FINAL SINGLE POINT ENERGY      -897.785177473353

DIPOLE MOMENT
-------------

Method             : SCF
Type of density    : Electron Density
Multiplicity       :   1
Irrep              :   0
Energy             :  -897.7857398263797677 Eh
Relativity type    :
Basis              : AO
                                X                 Y                 Z
Electronic contribution:    -11.392377580       2.798349847       1.223117048
Nuclear contribution   :     12.171089043      -3.326115196      -1.716941885
                        -----------------------------------------
Total Dipole Moment    :      0.778711463      -0.527765349      -0.493824837
                        -----------------------------------------
Magnitude (a.u.)       :      1.062445658
Magnitude (Debye)      :      2.700522249

Rotational constants in cm-1:             0.022881             0.006937             0.005461
Rotational constants in MHz :           685.963406           207.968859           163.706517

                             ****ORCA TERMINATED NORMALLY****
TOTAL RUN TIME: 0 days 0 hours 2 minutes 7 seconds 577 msec
