                         Program Version 6.0.0  -   RELEASE  -
|  1> ! r2scan-3c def2/J RI DEFGRID2 scfconv6 printgap
|  2> %output
|  3>     printlevel normal
|  4> end
|  5> %cpcm
|  6>     smd true
|  7>     smdsolvent "water"
|  8> end
|  9> * xyz 0 1
| 10> C -4.6975845126 -0.9959883893 -0.2473099308
| 11> C -3.9992345304 -2.1878378984 -0.1115057476
| 12> C -2.6240966213 -2.1722303423 0.0306856572
| 13> C -1.9222742406 -0.9684945154 0.0386914963
| 14> C -2.6280782495 0.2319859038 -0.0988509978
| 15> C -4.0144262398 0.2053719944 -0.2404952741
| 16> C -1.9249381351 1.5207732725 -0.0965936929
| 17> O -2.5316202103 2.5837001517 -0.2131193383
| 18> C -0.4590905722 1.4787402417 0.0480569294
| 19> C 0.2058019765 2.6924750239 0.0253949776
| 20> C 1.5919469839 2.7382139339 0.1483803234
| 21> C 2.30829475 1.5811296362 0.2966308101
| 22> C 1.6724650352 0.3161139722 0.3361022276
| 23> C 0.250374473 0.2636888514 0.200239578
| 24> C -0.4548771128 -1.0003936272 0.1986985422
| 25> O 0.1110127044 -2.101362049 0.3181820611
| 26> N 2.3798696294 -0.8073820589 0.5199589216
| 27> C 3.8123196711 -0.916597891 0.5726789971
| 28> C 4.4539318111 -0.8970321658 -0.8243578457
| 29> O 5.85230745 -0.9717485427 -0.6528580947
| 30> H -5.7704324538 -1.0052438302 -0.3579311241
| 31> H -4.527700668 -3.1282014661 -0.1161187868
| 32> H -2.0629443415 -3.0885462915 0.1390294136
| 33> H -4.5315053008 1.147849212 -0.3441454485
| 34> H -0.376231463 3.5934780501 -0.0924249143
| 35> H 2.0993622151 3.6897597967 0.1244975653
| 36> H 3.379915614 1.6316714146 0.3883025768
| 37> H 1.8382606921 -1.6685669078 0.4794982964
| 38> H 4.065999048 -1.8617859733 1.0537498272
| 39> H 4.2483190816 -0.1122478872 1.1692413706
| 40> H 4.1743842573 0.0282038324 -1.3460340305
| 41> H 4.0837287384 -1.7511455244 -1.4055489921
| 42> H 6.2839445482 -1.0080882273 -1.5166071312
| 43> *
| 44>
| 45>                          ****END OF INPUT****

CARTESIAN COORDINATES (ANGSTROEM)
---------------------------------
  C     -4.697585   -0.995988   -0.247310
  C     -3.999235   -2.187838   -0.111506
  C     -2.624097   -2.172230    0.030686
  C     -1.922274   -0.968495    0.038691
  C     -2.628078    0.231986   -0.098851
  C     -4.014426    0.205372   -0.240495
  C     -1.924938    1.520773   -0.096594
  O     -2.531620    2.583700   -0.213119
  C     -0.459091    1.478740    0.048057
  C      0.205802    2.692475    0.025395
  C      1.591947    2.738214    0.148380
  C      2.308295    1.581130    0.296631
  C      1.672465    0.316114    0.336102
  C      0.250374    0.263689    0.200240
  C     -0.454877   -1.000394    0.198699
  O      0.111013   -2.101362    0.318182
  N      2.379870   -0.807382    0.519959
  C      3.812320   -0.916598    0.572679
  C      4.453932   -0.897032   -0.824358
  O      5.852307   -0.971749   -0.652858
  H     -5.770432   -1.005244   -0.357931
  H     -4.527701   -3.128201   -0.116119
  H     -2.062944   -3.088546    0.139029
  H     -4.531505    1.147849   -0.344145
  H     -0.376231    3.593478   -0.092425
  H      2.099362    3.689760    0.124498
  H      3.379916    1.631671    0.388303
  H      1.838261   -1.668567    0.479498
  H      4.065999   -1.861786    1.053750
  H      4.248319   -0.112248    1.169241
  H      4.174384    0.028204   -1.346034
  H      4.083729   -1.751146   -1.405549
  H      6.283945   -1.008088   -1.516607

 Total Charge           Charge          ....    0
 Multiplicity           Mult            ....    1
 Number of Electrons    NEL             ....  140
 Basis Dimension        Dim             ....  465

ORBITAL ENERGIES
----------------

  NO   OCC          E(Eh)            E(eV)
   0   2.0000     -18.955563      -515.8071
   1   2.0000     -18.949098      -515.6312
   2   2.0000     -18.947047      -515.5754
   3   2.0000     -14.187332      -386.0569
   4   2.0000     -10.131915      -275.7034
   5   2.0000     -10.128204      -275.6024
   6   2.0000     -10.101941      -274.8878
   7   2.0000     -10.075851      -274.1779
   8   2.0000     -10.065431      -273.8943
   9   2.0000     -10.060364      -273.7564
  10   2.0000     -10.060257      -273.7535
  11   2.0000     -10.058499      -273.7057
  12   2.0000     -10.056981      -273.6644
  13   2.0000     -10.050406      -273.4855
  14   2.0000     -10.050061      -273.4761
  15   2.0000     -10.049818      -273.4695
  16   2.0000     -10.048446      -273.4321
  17   2.0000     -10.048248      -273.4267
  18   2.0000     -10.046594      -273.3817
  19   2.0000     -10.042285      -273.2645
  20   2.0000      -1.016173       -27.6515
  21   2.0000      -1.012213       -27.5437
  22   2.0000      -0.991491       -26.9798
  23   2.0000      -0.925153       -25.1747
  24   2.0000      -0.851423       -23.1684
  25   2.0000      -0.833229       -22.6733
  26   2.0000      -0.773284       -21.0421
  27   2.0000      -0.743085       -20.2204
  28   2.0000      -0.737162       -20.0592
  29   2.0000      -0.730384       -19.8748
  30   2.0000      -0.693060       -18.8591
  31   2.0000      -0.652326       -17.7507
  32   2.0000      -0.628172       -17.0934
  33   2.0000      -0.610030       -16.5998
  34   2.0000      -0.595475       -16.2037
  35   2.0000      -0.565054       -15.3759
  36   2.0000      -0.551824       -15.0159
  37   2.0000      -0.521166       -14.1816
  38   2.0000      -0.515242       -14.0204
  39   2.0000      -0.493892       -13.4395
  40   2.0000      -0.485078       -13.1996
  41   2.0000      -0.462824       -12.5941
  42   2.0000      -0.450415       -12.2564
  43   2.0000      -0.447262       -12.1706
  44   2.0000      -0.434664       -11.8278
  45   2.0000      -0.424702       -11.5567
  46   2.0000      -0.423954       -11.5364
  47   2.0000      -0.419489       -11.4149
  48   2.0000      -0.412157       -11.2154
  49   2.0000      -0.406331       -11.0568
  50   2.0000      -0.405155       -11.0248
  51   2.0000      -0.398544       -10.8449
  52   2.0000      -0.386823       -10.5260
  53   2.0000      -0.381604       -10.3840
  54   2.0000      -0.364622        -9.9219
  55   2.0000      -0.352263        -9.5856
  56   2.0000      -0.345080        -9.3901
  57   2.0000      -0.340073        -9.2539
  58   2.0000      -0.334755        -9.1091
  59   2.0000      -0.329030        -8.9534
  60   2.0000      -0.322440        -8.7741
  61   2.0000      -0.318510        -8.6671
  62   2.0000      -0.287438        -7.8216
  63   2.0000      -0.264962        -7.2100
  64   2.0000      -0.252113        -6.8604
  65   2.0000      -0.251684        -6.8487
  66   2.0000      -0.244992        -6.6666
  67   2.0000      -0.244242        -6.6462
  68   2.0000      -0.231363        -6.2957
  69   2.0000      -0.196586        -5.3494
  70   0.0000      -0.133934        -3.6445
  71   0.0000      -0.080624        -2.1939
  72   0.0000      -0.048953        -1.3321
  73   0.0000      -0.028341        -0.7712
  74   0.0000       0.024234         0.6594

MULLIKEN ATOMIC CHARGES
-----------------------
   0 C :   -0.169016
   1 C :   -0.158551
   2 C :   -0.241394
   3 C :    0.195992
   4 C :    0.138918
   5 C :   -0.227692
   6 C :    0.078341
   7 O :   -0.440387
   8 C :    0.189106
   9 C :   -0.256314
  10 C :   -0.185854
  11 C :   -0.282576
  12 C :    0.290863
  13 C :   -0.149673
  14 C :    0.032024
  15 O :   -0.499929
  16 N :   -0.063329
  17 C :   -0.323701
  18 C :   -0.103225
  19 O :   -0.501470
  20 H :    0.185394
  21 H :    0.185624
  22 H :    0.197437
  23 H :    0.195861
  24 H :    0.197229
  25 H :    0.184101
  26 H :    0.185900
  27 H :    0.339119
  28 H :    0.183133
  29 H :    0.176935
  30 H :    0.148660
  31 H :    0.147814
  32 H :    0.350657
Sum of atomic charges:    0.0000000

LOEWDIN ATOMIC CHARGES
----------------------
   0 C :   -0.138779
   1 C :   -0.132079
   2 C :   -0.107809
   3 C :   -0.027548
   4 C :   -0.041913
   5 C :   -0.101793
   6 C :    0.276824
   7 O :   -0.548399
   8 C :   -0.031979
   9 C :   -0.125950
  10 C :   -0.124424
  11 C :   -0.121549
  12 C :    0.201788
  13 C :   -0.039275
  14 C :    0.271813
  15 O :   -0.581058
  16 N :   -0.661975
  17 C :   -0.006817
  18 C :    0.040167
  19 O :   -0.648217
  20 H :    0.184347
  21 H :    0.184564
  22 H :    0.196778
  23 H :    0.195050
  24 H :    0.195941
  25 H :    0.186290
  26 H :    0.192652
  27 H :    0.299102
  28 H :    0.198500
  29 H :    0.191122
  30 H :    0.168692
  31 H :    0.167351
  32 H :    0.288577

  Mayer bond orders larger than 0.100000
B(  0-C ,  1-C ) :   1.3099 B(  0-C ,  5-C ) :   1.3533 B(  0-C , 20-H ) :   0.9602
B(  1-C ,  2-C ) :   1.3392 B(  1-C , 21-H ) :   0.9601 B(  2-C ,  3-C ) :   1.2995
B(  2-C , 15-O ) :   0.1002 B(  2-C , 22-H ) :   0.9725 B(  3-C ,  4-C ) :   1.5090
B(  3-C , 14-C ) :   0.9118 B(  3-C , 15-O ) :  -0.2020 B(  4-C ,  5-C ) :   1.2881
B(  4-C ,  6-C ) :   0.8632 B(  4-C ,  7-O ) :  -0.2229 B(  5-C ,  7-O ) :   0.1042
B(  5-C , 23-H ) :   0.9739 B(  6-C ,  7-O ) :   2.0602 B(  6-C ,  8-C ) :   0.8739
B(  7-O ,  8-C ) :  -0.2153 B(  7-O ,  9-C ) :   0.1211 B(  8-C ,  9-C ) :   1.3342
B(  8-C , 13-C ) :   1.2654 B(  9-C , 10-C ) :   1.2314 B(  9-C , 24-H ) :   0.9807
B( 10-C , 11-C ) :   1.3831 B( 10-C , 25-H ) :   0.9762 B( 11-C , 12-C ) :   1.0964
B( 11-C , 26-H ) :   0.9563 B( 12-C , 13-C ) :   1.2086 B( 12-C , 14-C ) :  -0.1020
B( 12-C , 16-N ) :   1.3079 B( 13-C , 14-C ) :   0.9589 B( 13-C , 15-O ) :  -0.1375
B( 14-C , 15-O ) :   1.8720 B( 16-N , 17-C ) :   0.8611 B( 16-N , 27-H ) :   0.8273
B( 17-C , 18-C ) :   0.9016 B( 17-C , 28-H ) :   0.9492 B( 17-C , 29-H ) :   0.9602
B( 18-C , 19-O ) :   0.9436 B( 18-C , 30-H ) :   0.9586 B( 18-C , 31-H ) :   0.9616
B( 19-O , 32-H ) :   0.8706

Dispersion correction           -0.015601411
FINAL SINGLE POINT ENERGY      -897.804964801648

DIPOLE MOMENT
-------------

Method             : SCF
Type of density    : Electron Density
Multiplicity       :   1
Irrep              :   0
Energy             :  -897.8055271546749054 Eh
Relativity type    :
Basis              : AO
                                X                 Y                 Z
Electronic contribution:    -10.914381878       2.604411708       1.057182413
Nuclear contribution   :     12.171089043      -3.326115196      -1.716941885
                        -----------------------------------------
Total Dipole Moment    :      1.256707165      -0.721703488      -0.659759472
                        -----------------------------------------
Magnitude (a.u.)       :      1.592310078
Magnitude (Debye)      :      4.047330571

Rotational constants in cm-1:             0.022881             0.006937             0.005461
Rotational constants in MHz :           685.963406           207.968859           163.706517

                             ****ORCA TERMINATED NORMALLY****
TOTAL RUN TIME: 0 days 0 hours 2 minutes 37 seconds 746 msec
