                         Program Version 6.0.0  -   RELEASE  -
|  1> ! r2scan-3c def2/J RI DEFGRID2 scfconv6 printgap
|  2> %output
|  3>     printlevel normal
|  4> end
|  5> * xyz 0 1
|  6> C 2.1767271299 1.1408338749 -0.5235718673
|  7> C 1.1981870323 0.2726698782 0.2671740849
|  8> C 1.8703653472 -1.044685535 0.6786271904
|  9> N -0.0014500661 0.083118019 -0.5346034592
| 10> C -1.2101481639 -0.3038901499 0.1842989634
| 11> C -2.1451233471 -1.0553298642 -0.759258057
| 12> C -1.9002035742 0.9534359893 0.7189128499
| 13> H 1.694574021 2.0699047964 -0.8119346943
| 14> H 3.0535556553 1.366152302 0.0770482453
| 15> H 2.4933164836 0.6217491362 -1.425005055
| 16> H 0.9013207696 0.8147367425 1.1720046554
| 17> H 2.2094259901 -1.5828588231 -0.2049629329
| 18> H 1.1760965089 -1.6799313518 1.2254028028
| 19> H 2.7282315202 -0.8485211196 1.3160119261
| 20> H 0.1963673991 -0.5848715972 -1.2723701443
| 21> H -0.9772024324 -0.963271101 1.0417066979
| 22> H -3.0743940723 -1.3001391388 -0.2520413661
| 23> H -2.3696353002 -0.4359993831 -1.6238053831
| 24> H -1.6850044817 -1.980631706 -1.1007874854
| 25> H -2.1598314615 1.6055207582 -0.110052126
| 26> H -1.2417903633 1.4977601826 1.3903938039
| 27> H -2.8033795744 0.6858325359 1.260605846
| 28> *
| 29>
| 30>                          ****END OF INPUT****

CARTESIAN COORDINATES (ANGSTROEM)
---------------------------------
  C      2.176727    1.140834   -0.523572
  C      1.198187    0.272670    0.267174
  C      1.870365   -1.044686    0.678627
  N     -0.001450    0.083118   -0.534603
  C     -1.210148   -0.303890    0.184299
  C     -2.145123   -1.055330   -0.759258
  C     -1.900204    0.953436    0.718913
  H      1.694574    2.069905   -0.811935
  H      3.053556    1.366152    0.077048
  H      2.493316    0.621749   -1.425005
  H      0.901321    0.814737    1.172005
  H      2.209426   -1.582859   -0.204963
  H      1.176097   -1.679931    1.225403
  H      2.728232   -0.848521    1.316012
  H      0.196367   -0.584872   -1.272370
  H     -0.977202   -0.963271    1.041707
  H     -3.074394   -1.300139   -0.252041
  H     -2.369635   -0.435999   -1.623805
  H     -1.685004   -1.980632   -1.100787
  H     -2.159831    1.605521   -0.110052
  H     -1.241790    1.497760    1.390394
  H     -2.803380    0.685833    1.260606

 Total Charge           Charge          ....    0
 Multiplicity           Mult            ....    1
 Number of Electrons    NEL             ....   58
 Basis Dimension        Dim             ....  213

ORBITAL ENERGIES
----------------

  NO   OCC          E(Eh)            E(eV)
   0   2.0000     -14.132144      -384.5552
   1   2.0000     -10.055559      -273.6257
   2   2.0000     -10.055107      -273.6134
   3   2.0000     -10.017398      -272.5873
   4   2.0000     -10.014575      -272.5104
   5   2.0000     -10.009983      -272.3855
   6   2.0000     -10.008218      -272.3374
   7   2.0000      -0.871353       -23.7107
   8   2.0000      -0.751995       -20.4628
   9   2.0000      -0.692138       -18.8340
  10   2.0000      -0.650859       -17.7108
  11   2.0000      -0.648529       -17.6474
  12   2.0000      -0.551677       -15.0119
  13   2.0000      -0.537104       -14.6153
  14   2.0000      -0.454432       -12.3657
  15   2.0000      -0.428792       -11.6680
  16   2.0000      -0.416242       -11.3265
  17   2.0000      -0.395286       -10.7563
  18   2.0000      -0.378417       -10.2973
  19   2.0000      -0.370354       -10.0778
  20   2.0000      -0.353850        -9.6287
  21   2.0000      -0.352413        -9.5896
  22   2.0000      -0.341676        -9.2975
  23   2.0000      -0.320545        -8.7225
  24   2.0000      -0.313440        -8.5291
  25   2.0000      -0.305498        -8.3130
  26   2.0000      -0.296757        -8.0752
  27   2.0000      -0.292354        -7.9554
  28   2.0000      -0.183924        -5.0048
  29   0.0000       0.076736         2.0881
  30   0.0000       0.103665         2.8209
  31   0.0000       0.112615         3.0644
  32   0.0000       0.121208         3.2982
  33   0.0000       0.124930         3.3995

MULLIKEN ATOMIC CHARGES
-----------------------
   0 C :   -0.464286
   1 C :   -0.043090
   2 C :   -0.471095
   3 N :   -0.300522
   4 C :    0.014532
   5 C :   -0.500026
   6 C :   -0.472954
   7 H :    0.159986
   8 H :    0.140268
   9 H :    0.139477
  10 H :    0.130219
  11 H :    0.142705
  12 H :    0.144604
  13 H :    0.147471
  14 H :    0.224073
  15 H :    0.124454
  16 H :    0.147155
  17 H :    0.161063
  18 H :    0.142194
  19 H :    0.156483
  20 H :    0.135301
  21 H :    0.141989
Sum of atomic charges:   -0.0000000

LOEWDIN ATOMIC CHARGES
----------------------
   0 C :   -0.387174
   1 C :   -0.020557
   2 C :   -0.403681
   3 N :   -0.836786
   4 C :   -0.016356
   5 C :   -0.388405
   6 C :   -0.389915
   7 H :    0.161507
   8 H :    0.151126
   9 H :    0.152918
  10 H :    0.177070
  11 H :    0.152419
  12 H :    0.153121
  13 H :    0.153999
  14 H :    0.251508
  15 H :    0.157116
  16 H :    0.157248
  17 H :    0.160080
  18 H :    0.152136
  19 H :    0.160009
  20 H :    0.152391
  21 H :    0.150227

  Mayer bond orders larger than 0.100000
B(  0-C ,  1-C ) :   0.9627 B(  0-C ,  7-H ) :   0.9755 B(  0-C ,  8-H ) :   0.9831
B(  0-C ,  9-H ) :   0.9715 B(  1-C ,  2-C ) :   0.9150 B(  1-C ,  3-N ) :   0.8591
B(  1-C , 10-H ) :   0.9479 B(  2-C , 11-H ) :   0.9768 B(  2-C , 12-H ) :   0.9718
B(  2-C , 13-H ) :   0.9769 B(  3-N ,  4-C ) :   0.7981 B(  3-N , 14-H ) :   0.9202
B(  4-C ,  5-C ) :   0.9086 B(  4-C ,  6-C ) :   0.9602 B(  4-C , 15-H ) :   0.9221
B(  5-C , 16-H ) :   0.9773 B(  5-C , 17-H ) :   0.9817 B(  5-C , 18-H ) :   0.9763
B(  6-C , 19-H ) :   0.9778 B(  6-C , 20-H ) :   0.9662 B(  6-C , 21-H ) :   0.9851

Dispersion correction           -0.005935822
FINAL SINGLE POINT ENERGY      -292.319413155695

DIPOLE MOMENT
-------------

Method             : SCF
Type of density    : Electron Density
Multiplicity       :   1
Irrep              :   0
Energy             :  -292.3278459856816198 Eh
Relativity type    :
Basis              : AO
                                X                 Y                 Z
Electronic contribution:     -0.072255317       0.347093748      -0.515195138
Nuclear contribution   :      0.132883415      -0.669926452       0.637106772
                        -----------------------------------------
Total Dipole Moment    :      0.060628098      -0.322832704       0.121911634
                        -----------------------------------------
Magnitude (a.u.)       :      0.350370044
Magnitude (Debye)      :      0.890569877

Rotational constants in cm-1:             0.137131             0.048694             0.044345
Rotational constants in MHz :          4111.074508          1459.809527          1329.424404

                             ****ORCA TERMINATED NORMALLY****
TOTAL RUN TIME: 0 days 0 hours 0 minutes 25 seconds 103 msec
