                         Program Version 6.0.0  -   RELEASE  -
|  1> ! r2scan-3c def2/J RI DEFGRID2 scfconv6 printgap
|  2> %output
|  3>     printlevel normal
|  4> end
|  5> %cpcm
|  6>     smd true
|  7>     smdsolvent "water"
|  8> end
|  9> * xyz 0 1
| 10> C 2.1767271299 1.1408338749 -0.5235718673
| 11> C 1.1981870323 0.2726698782 0.2671740849
| 12> C 1.8703653472 -1.044685535 0.6786271904
| 13> N -0.0014500661 0.083118019 -0.5346034592
| 14> C -1.2101481639 -0.3038901499 0.1842989634
| 15> C -2.1451233471 -1.0553298642 -0.759258057
| 16> C -1.9002035742 0.9534359893 0.7189128499
| 17> H 1.694574021 2.0699047964 -0.8119346943
| 18> H 3.0535556553 1.366152302 0.0770482453
| 19> H 2.4933164836 0.6217491362 -1.425005055
| 20> H 0.9013207696 0.8147367425 1.1720046554
| 21> H 2.2094259901 -1.5828588231 -0.2049629329
| 22> H 1.1760965089 -1.6799313518 1.2254028028
| 23> H 2.7282315202 -0.8485211196 1.3160119261
| 24> H 0.1963673991 -0.5848715972 -1.2723701443
| 25> H -0.9772024324 -0.963271101 1.0417066979
| 26> H -3.0743940723 -1.3001391388 -0.2520413661
| 27> H -2.3696353002 -0.4359993831 -1.6238053831
| 28> H -1.6850044817 -1.980631706 -1.1007874854
| 29> H -2.1598314615 1.6055207582 -0.110052126
| 30> H -1.2417903633 1.4977601826 1.3903938039
| 31> H -2.8033795744 0.6858325359 1.260605846
| 32> *
| 33>
| 34>                          ****END OF INPUT****

CARTESIAN COORDINATES (ANGSTROEM)
---------------------------------
  C      2.176727    1.140834   -0.523572
  C      1.198187    0.272670    0.267174
  C      1.870365   -1.044686    0.678627
  N     -0.001450    0.083118   -0.534603
  C     -1.210148   -0.303890    0.184299
  C     -2.145123   -1.055330   -0.759258
  C     -1.900204    0.953436    0.718913
  H      1.694574    2.069905   -0.811935
  H      3.053556    1.366152    0.077048
  H      2.493316    0.621749   -1.425005
  H      0.901321    0.814737    1.172005
  H      2.209426   -1.582859   -0.204963
  H      1.176097   -1.679931    1.225403
  H      2.728232   -0.848521    1.316012
  H      0.196367   -0.584872   -1.272370
  H     -0.977202   -0.963271    1.041707
  H     -3.074394   -1.300139   -0.252041
  H     -2.369635   -0.435999   -1.623805
  H     -1.685004   -1.980632   -1.100787
  H     -2.159831    1.605521   -0.110052
  H     -1.241790    1.497760    1.390394
  H     -2.803380    0.685833    1.260606

 Total Charge           Charge          ....    0
 Multiplicity           Mult            ....    1
 Number of Electrons    NEL             ....   58
 Basis Dimension        Dim             ....  213

ORBITAL ENERGIES
----------------

  NO   OCC          E(Eh)            E(eV)
   0   2.0000     -14.126769      -384.4089
   1   2.0000     -10.049606      -273.4637
   2   2.0000     -10.048646      -273.4376
   3   2.0000     -10.008443      -272.3436
   4   2.0000     -10.005030      -272.2507
   5   2.0000     -10.004713      -272.2421
   6   2.0000     -10.003379      -272.2058
   7   2.0000      -0.865922       -23.5629
   8   2.0000      -0.745661       -20.2905
   9   2.0000      -0.685828       -18.6623
  10   2.0000      -0.644781       -17.5454
  11   2.0000      -0.642130       -17.4733
  12   2.0000      -0.545418       -14.8416
  13   2.0000      -0.530669       -14.4402
  14   2.0000      -0.448331       -12.1997
  15   2.0000      -0.422508       -11.4970
  16   2.0000      -0.409507       -11.1433
  17   2.0000      -0.388830       -10.5806
  18   2.0000      -0.371419       -10.1068
  19   2.0000      -0.363514        -9.8917
  20   2.0000      -0.348082        -9.4718
  21   2.0000      -0.344756        -9.3813
  22   2.0000      -0.335769        -9.1367
  23   2.0000      -0.314102        -8.5471
  24   2.0000      -0.307428        -8.3655
  25   2.0000      -0.299132        -8.1398
  26   2.0000      -0.289735        -7.8841
  27   2.0000      -0.285437        -7.7671
  28   2.0000      -0.182919        -4.9775
  29   0.0000       0.086656         2.3580
  30   0.0000       0.115792         3.1508
  31   0.0000       0.120227         3.2715
  32   0.0000       0.127201         3.4613
  33   0.0000       0.131589         3.5807

MULLIKEN ATOMIC CHARGES
-----------------------
   0 C :   -0.524626
   1 C :   -0.008566
   2 C :   -0.523072
   3 N :   -0.371413
   4 C :    0.029559
   5 C :   -0.528939
   6 C :   -0.534749
   7 H :    0.158132
   8 H :    0.156392
   9 H :    0.159740
  10 H :    0.148272
  11 H :    0.158813
  12 H :    0.156146
  13 H :    0.159771
  14 H :    0.272146
  15 H :    0.137519
  16 H :    0.161709
  17 H :    0.162589
  18 H :    0.158958
  19 H :    0.159173
  20 H :    0.154514
  21 H :    0.157934
Sum of atomic charges:   -0.0000000

LOEWDIN ATOMIC CHARGES
----------------------
   0 C :   -0.398164
   1 C :   -0.019390
   2 C :   -0.410001
   3 N :   -0.854058
   4 C :   -0.016126
   5 C :   -0.394355
   6 C :   -0.401464
   7 H :    0.157833
   8 H :    0.156115
   9 H :    0.157414
  10 H :    0.181605
  11 H :    0.157030
  12 H :    0.156277
  13 H :    0.156983
  14 H :    0.260720
  15 H :    0.162581
  16 H :    0.160855
  17 H :    0.159644
  18 H :    0.157749
  19 H :    0.157364
  20 H :    0.156083
  21 H :    0.155306

  Mayer bond orders larger than 0.100000
B(  0-C ,  1-C ) :   0.9334 B(  0-C ,  7-H ) :   0.9768 B(  0-C ,  8-H ) :   0.9787
B(  0-C ,  9-H ) :   0.9732 B(  1-C ,  2-C ) :   0.9043 B(  1-C ,  3-N ) :   0.8574
B(  1-C , 10-H ) :   0.9503 B(  2-C , 11-H ) :   0.9757 B(  2-C , 12-H ) :   0.9693
B(  2-C , 13-H ) :   0.9746 B(  3-N ,  4-C ) :   0.7992 B(  3-N , 14-H ) :   0.9047
B(  4-C ,  5-C ) :   0.9132 B(  4-C ,  6-C ) :   0.9356 B(  4-C , 15-H ) :   0.9247
B(  5-C , 16-H ) :   0.9757 B(  5-C , 17-H ) :   0.9773 B(  5-C , 18-H ) :   0.9715
B(  6-C , 19-H ) :   0.9791 B(  6-C , 20-H ) :   0.9670 B(  6-C , 21-H ) :   0.9798

Dispersion correction           -0.005935822
FINAL SINGLE POINT ENERGY      -292.321696281167

DIPOLE MOMENT
-------------

Method             : SCF
Type of density    : Electron Density
Multiplicity       :   1
Irrep              :   0
Energy             :  -292.3301291111537807 Eh
Relativity type    :
Basis              : AO
                                X                 Y                 Z
Electronic contribution:     -0.020160648       0.134909199      -0.418082542
Nuclear contribution   :      0.132883415      -0.669926452       0.637106772
                        -----------------------------------------
Total Dipole Moment    :      0.112722768      -0.535017253       0.219024230
                        -----------------------------------------
Magnitude (a.u.)       :      0.589000422
Magnitude (Debye)      :      1.497120094

Rotational constants in cm-1:             0.137131             0.048694             0.044345
Rotational constants in MHz :          4111.074508          1459.809527          1329.424404

                             ****ORCA TERMINATED NORMALLY****
TOTAL RUN TIME: 0 days 0 hours 0 minutes 33 seconds 947 msec
