                         Program Version 6.0.0  -   RELEASE  -
|  1> ! pbe def2-sv(p) def2/J RI DEFGRID1 loosescf d4 GCP(DFT/SV(P)) printgap
|  2> %output
|  3>     printlevel normal
|  4> end
|  5> * xyz 0 1
|  6> C 1.621446954 -1.6591039486 0.2363056768
|  7> O 0.3423351039 -1.0545920998 0.3918225406
|  8> C 0.0049055793 -0.1770014441 -0.6300231557
|  9> O 0.7646904255 0.9934962058 -0.5908794494
| 10> C 0.6871119816 1.780715875 0.601294998
| 11> O -1.3627827639 0.023896181 -0.661019182
| 12> C -2.080220213 0.0881815183 0.579559163
| 13> H 1.6329179198 -2.2892908562 -0.6562616993
| 14> H 1.7652499934 -2.2601679825 1.1294181957
| 15> H 2.3996223697 -0.8973582072 0.1571269342
| 16> H 0.2560372275 -0.5988218708 -1.6204254833
| 17> H 1.6003037601 2.370965638 0.6160898442
| 18> H 0.6390568427 1.1381017363 1.4818676583
| 19> H -0.1802605778 2.4422804531 0.5617645759
| 20> H -1.9606780917 1.0609889939 1.0575532358
| 21> H -1.7532170053 -0.7054906456 1.2498551564
| 22> H -3.1186822179 -0.0614767605 0.2956603742
| 23> *
| 24>
| 25>                          ****END OF INPUT****

CARTESIAN COORDINATES (ANGSTROEM)
---------------------------------
  C      1.621447   -1.659104    0.236306
  O      0.342335   -1.054592    0.391823
  C      0.004906   -0.177001   -0.630023
  O      0.764690    0.993496   -0.590879
  C      0.687112    1.780716    0.601295
  O     -1.362783    0.023896   -0.661019
  C     -2.080220    0.088182    0.579559
  H      1.632918   -2.289291   -0.656262
  H      1.765250   -2.260168    1.129418
  H      2.399622   -0.897358    0.157127
  H      0.256037   -0.598822   -1.620425
  H      1.600304    2.370966    0.616090
  H      0.639057    1.138102    1.481868
  H     -0.180261    2.442280    0.561765
  H     -1.960678    1.060989    1.057553
  H     -1.753217   -0.705491    1.249855
  H     -3.118682   -0.061477    0.295660

 Total Charge           Charge          ....    0
 Multiplicity           Mult            ....    1
 Number of Electrons    NEL             ....   58
 Basis Dimension        Dim             ....  118

ORBITAL ENERGIES
----------------

  NO   OCC          E(Eh)            E(eV)
   0   2.0000     -18.768071      -510.7052
   1   2.0000     -18.756806      -510.3986
   2   2.0000     -18.754227      -510.3285
   3   2.0000     -10.018822      -272.6260
   4   2.0000      -9.933692      -270.3095
   5   2.0000      -9.925283      -270.0807
   6   2.0000      -9.923416      -270.0299
   7   2.0000      -0.998493       -27.1704
   8   2.0000      -0.915057       -24.9000
   9   2.0000      -0.907848       -24.7038
  10   2.0000      -0.671419       -18.2703
  11   2.0000      -0.627905       -17.0862
  12   2.0000      -0.613319       -16.6893
  13   2.0000      -0.524577       -14.2745
  14   2.0000      -0.472913       -12.8686
  15   2.0000      -0.464789       -12.6475
  16   2.0000      -0.462752       -12.5921
  17   2.0000      -0.406177       -11.0526
  18   2.0000      -0.397280       -10.8105
  19   2.0000      -0.382256       -10.4017
  20   2.0000      -0.376625       -10.2485
  21   2.0000      -0.371421       -10.1069
  22   2.0000      -0.348583        -9.4854
  23   2.0000      -0.312273        -8.4974
  24   2.0000      -0.278290        -7.5727
  25   2.0000      -0.268382        -7.3031
  26   2.0000      -0.236742        -6.4421
  27   2.0000      -0.230147        -6.2626
  28   2.0000      -0.208037        -5.6610
  29   0.0000       0.039087         1.0636
  30   0.0000       0.060664         1.6507
  31   0.0000       0.078788         2.1439
  32   0.0000       0.081173         2.2088
  33   0.0000       0.087828         2.3899

MULLIKEN ATOMIC CHARGES
-----------------------
   0 C :   -0.106313
   1 O :   -0.324661
   2 C :    0.289413
   3 O :   -0.323450
   4 C :   -0.126308
   5 O :   -0.316708
   6 C :   -0.116997
   7 H :    0.098674
   8 H :    0.118386
   9 H :    0.105411
  10 H :    0.050270
  11 H :    0.114563
  12 H :    0.102259
  13 H :    0.111899
  14 H :    0.092330
  15 H :    0.116576
  16 H :    0.114654
Sum of atomic charges:   -0.0000000

LOEWDIN ATOMIC CHARGES
----------------------
   0 C :   -0.203197
   1 O :   -0.162728
   2 C :    0.046082
   3 O :   -0.172371
   4 C :   -0.214390
   5 O :   -0.157571
   6 C :   -0.209364
   7 H :    0.106124
   8 H :    0.118181
   9 H :    0.105891
  10 H :    0.089877
  11 H :    0.116137
  12 H :    0.104229
  13 H :    0.106153
  14 H :    0.098858
  15 H :    0.111170
  16 H :    0.116919

  Mayer bond orders larger than 0.100000
B(  0-C ,  1-O ) :   0.9825 B(  0-C ,  7-H ) :   0.9472 B(  0-C ,  8-H ) :   0.9639
B(  0-C ,  9-H ) :   0.9429 B(  1-O ,  2-C ) :   1.0413 B(  2-C ,  3-O ) :   1.1007
B(  2-C ,  5-O ) :   1.1170 B(  2-C , 10-H ) :   0.9004 B(  3-O ,  4-C ) :   0.9773
B(  4-C , 11-H ) :   0.9628 B(  4-C , 12-H ) :   0.9352 B(  4-C , 13-H ) :   0.9467
B(  5-O ,  6-C ) :   0.9798 B(  6-C , 14-H ) :   0.9401 B(  6-C , 15-H ) :   0.9402
B(  6-C , 16-H ) :   0.9646

Dispersion correction           -0.012459091
FINAL SINGLE POINT ENERGY      -383.228078601353

DIPOLE MOMENT
-------------

Method             : SCF
Type of density    : Electron Density
Multiplicity       :   1
Irrep              :   0
Energy             :  -383.3084263595088714 Eh
Relativity type    :
Basis              : AO
                                X                 Y                 Z
Electronic contribution:     -0.912486219      -0.330888102      -3.346862014
Nuclear contribution   :      1.197391452       0.186829190       3.995709901
                        -----------------------------------------
Total Dipole Moment    :      0.284905233      -0.144058912       0.648847887
                        -----------------------------------------
Magnitude (a.u.)       :      0.723137292
Magnitude (Debye)      :      1.838068922

Rotational constants in cm-1:             0.105437             0.079868             0.057503
Rotational constants in MHz :          3160.928098          2394.376521          1723.907625

                             ****ORCA TERMINATED NORMALLY****
TOTAL RUN TIME: 0 days 0 hours 0 minutes 9 seconds 839 msec
