                         Program Version 6.0.0  -   RELEASE  -
|  1> ! r2scan-3c def2/J RI DEFGRID2 scfconv6 printgap
|  2> %output
|  3>     printlevel normal
|  4> end
|  5> * xyz 0 1
|  6> C -2.6225599993 -1.2405762414 -0.366036701
|  7> C -2.5751900412 0.2022736565 0.1221743486
|  8> C -1.267224886 0.5058190053 0.8554378486
|  9> C -0.0892445981 0.4983814785 -0.08482187
| 10> O -0.0815874071 0.9726019309 -1.2023980754
| 11> O 0.970294518 -0.0815493483 0.4628294527
| 12> C 2.1843550027 -0.1280785045 -0.3061490022
| 13> C 3.2924201191 -0.6496298984 0.5878682882
| 14> H -1.8140433183 -1.427540669 -1.0705039557
| 15> H -2.5209499775 -1.9307775564 0.4681387461
| 16> H -3.5654964397 -1.4401548427 -0.868119125
| 17> H -3.4108578265 0.3885295429 0.7970503654
| 18> H -2.6616779127 0.8789939116 -0.7299000238
| 19> H -1.0794483215 -0.2145126326 1.6510315503
| 20> H -1.3160224005 1.5054968551 1.292638753
| 21> H 2.0191919035 -0.781227397 -1.1693401265
| 22> H 2.3980105495 0.8796211679 -0.6776405814
| 23> H 3.0377963455 -1.6394003859 0.9548015224
| 24> H 4.2158631372 -0.7032613063 0.0208626109
| 25> H 3.4300523295 0.0138982332 1.4364332598
| 26> *
| 27>
| 28>                          ****END OF INPUT****

CARTESIAN COORDINATES (ANGSTROEM)
---------------------------------
  C     -2.622560   -1.240576   -0.366037
  C     -2.575190    0.202274    0.122174
  C     -1.267225    0.505819    0.855438
  C     -0.089245    0.498381   -0.084822
  O     -0.081587    0.972602   -1.202398
  O      0.970295   -0.081549    0.462829
  C      2.184355   -0.128079   -0.306149
  C      3.292420   -0.649630    0.587868
  H     -1.814043   -1.427541   -1.070504
  H     -2.520950   -1.930778    0.468139
  H     -3.565496   -1.440155   -0.868119
  H     -3.410858    0.388530    0.797050
  H     -2.661678    0.878994   -0.729900
  H     -1.079448   -0.214513    1.651032
  H     -1.316022    1.505497    1.292639
  H      2.019192   -0.781227   -1.169340
  H      2.398011    0.879621   -0.677641
  H      3.037796   -1.639400    0.954802
  H      4.215863   -0.703261    0.020863
  H      3.430052    0.013898    1.436433

 Total Charge           Charge          ....    0
 Multiplicity           Mult            ....    1
 Number of Electrons    NEL             ....   64
 Basis Dimension        Dim             ....  222

ORBITAL ENERGIES
----------------

  NO   OCC          E(Eh)            E(eV)
   0   2.0000     -18.996773      -516.9285
   1   2.0000     -18.927254      -515.0368
   2   2.0000     -10.150775      -276.2166
   3   2.0000     -10.091374      -274.6002
   4   2.0000     -10.040702      -273.2214
   5   2.0000     -10.032209      -272.9903
   6   2.0000     -10.031254      -272.9643
   7   2.0000     -10.017475      -272.5894
   8   2.0000      -1.071626       -29.1604
   9   2.0000      -0.974300       -26.5121
  10   2.0000      -0.772177       -21.0120
  11   2.0000      -0.743026       -20.2188
  12   2.0000      -0.677478       -18.4351
  13   2.0000      -0.617074       -16.7914
  14   2.0000      -0.564234       -15.3536
  15   2.0000      -0.528410       -14.3788
  16   2.0000      -0.470511       -12.8033
  17   2.0000      -0.464492       -12.6395
  18   2.0000      -0.432676       -11.7737
  19   2.0000      -0.428582       -11.6623
  20   2.0000      -0.406517       -11.0619
  21   2.0000      -0.380545       -10.3551
  22   2.0000      -0.376890       -10.2557
  23   2.0000      -0.365448        -9.9443
  24   2.0000      -0.361258        -9.8303
  25   2.0000      -0.333267        -9.0686
  26   2.0000      -0.322190        -8.7672
  27   2.0000      -0.308659        -8.3990
  28   2.0000      -0.307446        -8.3660
  29   2.0000      -0.305748        -8.3198
  30   2.0000      -0.271907        -7.3990
  31   2.0000      -0.235094        -6.3972
  32   0.0000      -0.014616        -0.3977
  33   0.0000       0.073995         2.0135
  34   0.0000       0.095614         2.6018
  35   0.0000       0.104010         2.8303
  36   0.0000       0.125592         3.4175

MULLIKEN ATOMIC CHARGES
-----------------------
   0 C :   -0.497553
   1 C :   -0.204741
   2 C :   -0.297154
   3 C :    0.325606
   4 O :   -0.422308
   5 O :   -0.158376
   6 C :   -0.153828
   7 C :   -0.441578
   8 H :    0.158434
   9 H :    0.143204
  10 H :    0.147942
  11 H :    0.142114
  12 H :    0.159439
  13 H :    0.165077
  14 H :    0.167107
  15 H :    0.152975
  16 H :    0.161717
  17 H :    0.152154
  18 H :    0.147201
  19 H :    0.152568
Sum of atomic charges:   -0.0000000

LOEWDIN ATOMIC CHARGES
----------------------
   0 C :   -0.417163
   1 C :   -0.296506
   2 C :   -0.233287
   3 C :    0.354029
   4 O :   -0.433499
   5 O :   -0.598386
   6 C :    0.033138
   7 C :   -0.386818
   8 H :    0.156837
   9 H :    0.149252
  10 H :    0.152865
  11 H :    0.152398
  12 H :    0.169227
  13 H :    0.177858
  14 H :    0.182869
  15 H :    0.177371
  16 H :    0.181655
  17 H :    0.159391
  18 H :    0.159498
  19 H :    0.159271

  Mayer bond orders larger than 0.100000
B(  0-C ,  1-C ) :   0.9086 B(  0-C ,  8-H ) :   0.9748 B(  0-C ,  9-H ) :   0.9824
B(  0-C , 10-H ) :   0.9690 B(  1-C ,  2-C ) :   0.8971 B(  1-C , 11-H ) :   0.9648
B(  1-C , 12-H ) :   0.9621 B(  2-C ,  3-C ) :   0.9464 B(  2-C , 13-H ) :   1.0033
B(  2-C , 14-H ) :   0.9256 B(  3-C ,  4-O ) :   1.8201 B(  3-C ,  5-O ) :   1.0803
B(  5-O ,  6-C ) :   0.8033 B(  6-C ,  7-C ) :   0.9405 B(  6-C , 15-H ) :   0.9500
B(  6-C , 16-H ) :   0.9568 B(  7-C , 17-H ) :   0.9707 B(  7-C , 18-H ) :   0.9681
B(  7-C , 19-H ) :   0.9736

Dispersion correction           -0.004983691
FINAL SINGLE POINT ENERGY      -386.236926995711

DIPOLE MOMENT
-------------

Method             : SCF
Type of density    : Electron Density
Multiplicity       :   1
Irrep              :   0
Energy             :  -386.2436114336318838 Eh
Relativity type    :
Basis              : AO
                                X                 Y                 Z
Electronic contribution:      1.479904826       3.818684229      -1.336572286
Nuclear contribution   :     -1.176025259      -4.180706828       1.964299439
                        -----------------------------------------
Total Dipole Moment    :      0.303879568      -0.362022599       0.627727154
                        -----------------------------------------
Magnitude (a.u.)       :      0.785776389
Magnitude (Debye)      :      1.997284854

Rotational constants in cm-1:             0.146501             0.032097             0.030775
Rotational constants in MHz :          4391.978988           962.253650           922.602387

                             ****ORCA TERMINATED NORMALLY****
TOTAL RUN TIME: 0 days 0 hours 0 minutes 33 seconds 444 msec
