                         Program Version 6.0.0  -   RELEASE  -
|  1> ! r2scan-3c def2/J RI DEFGRID2 scfconv6 printgap
|  2> %output
|  3>     printlevel normal
|  4> end
|  5> %cpcm
|  6>     smd true
|  7>     smdsolvent "water"
|  8> end
|  9> * xyz 0 1
| 10> C -2.6225599993 -1.2405762414 -0.366036701
| 11> C -2.5751900412 0.2022736565 0.1221743486
| 12> C -1.267224886 0.5058190053 0.8554378486
| 13> C -0.0892445981 0.4983814785 -0.08482187
| 14> O -0.0815874071 0.9726019309 -1.2023980754
| 15> O 0.970294518 -0.0815493483 0.4628294527
| 16> C 2.1843550027 -0.1280785045 -0.3061490022
| 17> C 3.2924201191 -0.6496298984 0.5878682882
| 18> H -1.8140433183 -1.427540669 -1.0705039557
| 19> H -2.5209499775 -1.9307775564 0.4681387461
| 20> H -3.5654964397 -1.4401548427 -0.868119125
| 21> H -3.4108578265 0.3885295429 0.7970503654
| 22> H -2.6616779127 0.8789939116 -0.7299000238
| 23> H -1.0794483215 -0.2145126326 1.6510315503
| 24> H -1.3160224005 1.5054968551 1.292638753
| 25> H 2.0191919035 -0.781227397 -1.1693401265
| 26> H 2.3980105495 0.8796211679 -0.6776405814
| 27> H 3.0377963455 -1.6394003859 0.9548015224
| 28> H 4.2158631372 -0.7032613063 0.0208626109
| 29> H 3.4300523295 0.0138982332 1.4364332598
| 30> *
| 31>
| 32>                          ****END OF INPUT****

CARTESIAN COORDINATES (ANGSTROEM)
---------------------------------
  C     -2.622560   -1.240576   -0.366037
  C     -2.575190    0.202274    0.122174
  C     -1.267225    0.505819    0.855438
  C     -0.089245    0.498381   -0.084822
  O     -0.081587    0.972602   -1.202398
  O      0.970295   -0.081549    0.462829
  C      2.184355   -0.128079   -0.306149
  C      3.292420   -0.649630    0.587868
  H     -1.814043   -1.427541   -1.070504
  H     -2.520950   -1.930778    0.468139
  H     -3.565496   -1.440155   -0.868119
  H     -3.410858    0.388530    0.797050
  H     -2.661678    0.878994   -0.729900
  H     -1.079448   -0.214513    1.651032
  H     -1.316022    1.505497    1.292639
  H      2.019192   -0.781227   -1.169340
  H      2.398011    0.879621   -0.677641
  H      3.037796   -1.639400    0.954802
  H      4.215863   -0.703261    0.020863
  H      3.430052    0.013898    1.436433

 Total Charge           Charge          ....    0
 Multiplicity           Mult            ....    1
 Number of Electrons    NEL             ....   64
 Basis Dimension        Dim             ....  222

ORBITAL ENERGIES
----------------

  NO   OCC          E(Eh)            E(eV)
   0   2.0000     -19.002834      -517.0934
   1   2.0000     -18.943704      -515.4844
   2   2.0000     -10.162003      -276.5222
   3   2.0000     -10.083796      -274.3940
   4   2.0000     -10.035401      -273.0771
   5   2.0000     -10.026402      -272.8323
   6   2.0000     -10.018829      -272.6262
   7   2.0000     -10.010917      -272.4109
   8   2.0000      -1.079445       -29.3732
   9   2.0000      -0.988497       -26.8984
  10   2.0000      -0.768603       -20.9147
  11   2.0000      -0.735861       -20.0238
  12   2.0000      -0.672306       -18.2944
  13   2.0000      -0.610996       -16.6260
  14   2.0000      -0.558612       -15.2006
  15   2.0000      -0.527854       -14.3636
  16   2.0000      -0.472603       -12.8602
  17   2.0000      -0.465126       -12.6567
  18   2.0000      -0.443886       -12.0787
  19   2.0000      -0.422538       -11.4978
  20   2.0000      -0.404800       -11.0152
  21   2.0000      -0.377464       -10.2713
  22   2.0000      -0.368171       -10.0184
  23   2.0000      -0.361169        -9.8279
  24   2.0000      -0.355500        -9.6737
  25   2.0000      -0.328642        -8.9428
  26   2.0000      -0.319866        -8.7040
  27   2.0000      -0.305300        -8.3076
  28   2.0000      -0.303818        -8.2673
  29   2.0000      -0.302397        -8.2286
  30   2.0000      -0.278044        -7.5659
  31   2.0000      -0.252186        -6.8623
  32   0.0000      -0.022951        -0.6245
  33   0.0000       0.076625         2.0851
  34   0.0000       0.102352         2.7851
  35   0.0000       0.115021         3.1299
  36   0.0000       0.131883         3.5887

MULLIKEN ATOMIC CHARGES
-----------------------
   0 C :   -0.527890
   1 C :   -0.219834
   2 C :   -0.309145
   3 C :    0.371721
   4 O :   -0.508733
   5 O :   -0.176218
   6 C :   -0.157200
   7 C :   -0.490367
   8 H :    0.160756
   9 H :    0.159834
  10 H :    0.160459
  11 H :    0.161584
  12 H :    0.151151
  13 H :    0.181327
  14 H :    0.198751
  15 H :    0.173062
  16 H :    0.171556
  17 H :    0.164568
  18 H :    0.169029
  19 H :    0.165589
Sum of atomic charges:   -0.0000000

LOEWDIN ATOMIC CHARGES
----------------------
   0 C :   -0.423886
   1 C :   -0.296392
   2 C :   -0.229792
   3 C :    0.364907
   4 O :   -0.494732
   5 O :   -0.600198
   6 C :    0.035422
   7 C :   -0.389823
   8 H :    0.156058
   9 H :    0.155236
  10 H :    0.155786
  11 H :    0.160058
  12 H :    0.164166
  13 H :    0.185932
  14 H :    0.194429
  15 H :    0.184047
  16 H :    0.185314
  17 H :    0.162660
  18 H :    0.168300
  19 H :    0.162506

  Mayer bond orders larger than 0.100000
B(  0-C ,  1-C ) :   0.9069 B(  0-C ,  8-H ) :   0.9726 B(  0-C ,  9-H ) :   0.9780
B(  0-C , 10-H ) :   0.9667 B(  1-C ,  2-C ) :   0.8813 B(  1-C , 11-H ) :   0.9605
B(  1-C , 12-H ) :   0.9684 B(  2-C ,  3-C ) :   0.9500 B(  2-C , 13-H ) :   0.9920
B(  2-C , 14-H ) :   0.9175 B(  3-C ,  4-O ) :   1.7516 B(  3-C ,  5-O ) :   1.1059
B(  5-O ,  6-C ) :   0.7899 B(  6-C ,  7-C ) :   0.9415 B(  6-C , 15-H ) :   0.9415
B(  6-C , 16-H ) :   0.9501 B(  7-C , 17-H ) :   0.9683 B(  7-C , 18-H ) :   0.9615
B(  7-C , 19-H ) :   0.9722

Dispersion correction           -0.004983691
FINAL SINGLE POINT ENERGY      -386.242352787673

DIPOLE MOMENT
-------------

Method             : SCF
Type of density    : Electron Density
Multiplicity       :   1
Irrep              :   0
Energy             :  -386.2490372255937814 Eh
Relativity type    :
Basis              : AO
                                X                 Y                 Z
Electronic contribution:      1.558330766       3.672959313      -1.018586143
Nuclear contribution   :     -1.176025259      -4.180706828       1.964299439
                        -----------------------------------------
Total Dipole Moment    :      0.382305507      -0.507747514       0.945713296
                        -----------------------------------------
Magnitude (a.u.)       :      1.139446654
Magnitude (Debye)      :      2.896243227

Rotational constants in cm-1:             0.146501             0.032097             0.030775
Rotational constants in MHz :          4391.978988           962.253650           922.602387

                             ****ORCA TERMINATED NORMALLY****
TOTAL RUN TIME: 0 days 0 hours 0 minutes 39 seconds 304 msec
