                         Program Version 6.0.0  -   RELEASE  -
|  1> ! r2scan-3c def2/J RI DEFGRID2 scfconv6 printgap
|  2> %output
|  3>     printlevel normal
|  4> end
|  5> * xyz 0 1
|  6> C -3.4481997542 -0.4780004123 -0.4189021512
|  7> C -2.7017558716 0.1886625385 0.7308018969
|  8> C -1.289335769 0.6359526855 0.3551017073
|  9> C -0.3528643153 -0.5441412707 0.065249313
| 10> C 1.0129718491 -0.0350362975 -0.3052959335
| 11> O 1.2598007694 0.6677589493 -1.2633606553
| 12> O 1.9408280484 -0.4332108629 0.5586401328
| 13> C 3.2866061586 -0.0060044422 0.3305598732
| 14> H -3.4559823375 0.1697309497 -1.2925321901
| 15> H -2.9861539754 -1.422395078 -0.6930777865
| 16> H -4.4770187057 -0.6779537946 -0.1305744294
| 17> H -3.2610166708 1.0699511471 1.0504119139
| 18> H -2.6490415376 -0.4969235217 1.5784404457
| 19> H -0.8714648116 1.2210671779 1.1773687483
| 20> H -1.3250301125 1.2785040296 -0.527110392
| 21> H -0.7376170294 -1.1124999265 -0.781792086
| 22> H -0.2645032449 -1.1918847975 0.9363062921
| 23> H 3.6167249005 -0.3271889509 -0.6579719904
| 24> H 3.8784337854 -0.4719930347 1.1118227368
| 25> H 3.3464509432 1.0813416996 0.3882448016
| 26> *
| 27>
| 28>                          ****END OF INPUT****

CARTESIAN COORDINATES (ANGSTROEM)
---------------------------------
  C     -3.448200   -0.478000   -0.418902
  C     -2.701756    0.188663    0.730802
  C     -1.289336    0.635953    0.355102
  C     -0.352864   -0.544141    0.065249
  C      1.012972   -0.035036   -0.305296
  O      1.259801    0.667759   -1.263361
  O      1.940828   -0.433211    0.558640
  C      3.286606   -0.006004    0.330560
  H     -3.455982    0.169731   -1.292532
  H     -2.986154   -1.422395   -0.693078
  H     -4.477019   -0.677954   -0.130574
  H     -3.261017    1.069951    1.050412
  H     -2.649042   -0.496924    1.578440
  H     -0.871465    1.221067    1.177369
  H     -1.325030    1.278504   -0.527110
  H     -0.737617   -1.112500   -0.781792
  H     -0.264503   -1.191885    0.936306
  H      3.616725   -0.327189   -0.657972
  H      3.878434   -0.471993    1.111823
  H      3.346451    1.081342    0.388245

 Total Charge           Charge          ....    0
 Multiplicity           Mult            ....    1
 Number of Electrons    NEL             ....   64
 Basis Dimension        Dim             ....  222

ORBITAL ENERGIES
----------------

  NO   OCC          E(Eh)            E(eV)
   0   2.0000     -18.999609      -517.0056
   1   2.0000     -18.927572      -515.0454
   2   2.0000     -10.151228      -276.2289
   3   2.0000     -10.086491      -274.4674
   4   2.0000     -10.041158      -273.2338
   5   2.0000     -10.034289      -273.0469
   6   2.0000     -10.030328      -272.9391
   7   2.0000     -10.019586      -272.6468
   8   2.0000      -1.072835       -29.1933
   9   2.0000      -0.974957       -26.5299
  10   2.0000      -0.779035       -21.1986
  11   2.0000      -0.727696       -19.8016
  12   2.0000      -0.684762       -18.6333
  13   2.0000      -0.624348       -16.9894
  14   2.0000      -0.550602       -14.9826
  15   2.0000      -0.529756       -14.4154
  16   2.0000      -0.471698       -12.8356
  17   2.0000      -0.457383       -12.4460
  18   2.0000      -0.445111       -12.1121
  19   2.0000      -0.429054       -11.6752
  20   2.0000      -0.414361       -11.2753
  21   2.0000      -0.393414       -10.7053
  22   2.0000      -0.380156       -10.3446
  23   2.0000      -0.368950       -10.0396
  24   2.0000      -0.344321        -9.3694
  25   2.0000      -0.338772        -9.2185
  26   2.0000      -0.324583        -8.8324
  27   2.0000      -0.304041        -8.2734
  28   2.0000      -0.302169        -8.2224
  29   2.0000      -0.297448        -8.0940
  30   2.0000      -0.273520        -7.4429
  31   2.0000      -0.235410        -6.4058
  32   0.0000      -0.014914        -0.4058
  33   0.0000       0.065190         1.7739
  34   0.0000       0.094788         2.5793
  35   0.0000       0.098922         2.6918
  36   0.0000       0.116263         3.1637

MULLIKEN ATOMIC CHARGES
-----------------------
   0 C :   -0.494550
   1 C :   -0.204805
   2 C :   -0.265015
   3 C :   -0.341771
   4 C :    0.380091
   5 O :   -0.423744
   6 O :   -0.187325
   7 C :   -0.296217
   8 H :    0.151143
   9 H :    0.144759
  10 H :    0.148881
  11 H :    0.146142
  12 H :    0.132770
  13 H :    0.139841
  14 H :    0.166926
  15 H :    0.165731
  16 H :    0.163680
  17 H :    0.162747
  18 H :    0.150272
  19 H :    0.160444
Sum of atomic charges:    0.0000000

LOEWDIN ATOMIC CHARGES
----------------------
   0 C :   -0.425288
   1 C :   -0.314914
   2 C :   -0.283549
   3 C :   -0.228626
   4 C :    0.353612
   5 O :   -0.426666
   6 O :   -0.604251
   7 C :   -0.045019
   8 H :    0.152713
   9 H :    0.148074
  10 H :    0.152272
  11 H :    0.154772
  12 H :    0.152106
  13 H :    0.159588
  14 H :    0.167638
  15 H :    0.180400
  16 H :    0.177341
  17 H :    0.177648
  18 H :    0.175965
  19 H :    0.176183

  Mayer bond orders larger than 0.100000
B(  0-C ,  1-C ) :   0.8909 B(  0-C ,  8-H ) :   0.9817 B(  0-C ,  9-H ) :   0.9816
B(  0-C , 10-H ) :   0.9695 B(  1-C ,  2-C ) :   0.8898 B(  1-C , 11-H ) :   0.9701
B(  1-C , 12-H ) :   0.9790 B(  2-C ,  3-C ) :   0.9001 B(  2-C , 13-H ) :   0.9608
B(  2-C , 14-H ) :   0.9756 B(  3-C ,  4-C ) :   0.9800 B(  3-C , 15-H ) :   0.9506
B(  3-C , 16-H ) :   0.9852 B(  4-C ,  5-O ) :   1.8094 B(  4-C ,  6-O ) :   1.0589
B(  6-O ,  7-C ) :   0.8526 B(  7-C , 17-H ) :   0.9629 B(  7-C , 18-H ) :   0.9692
B(  7-C , 19-H ) :   0.9621

Dispersion correction           -0.005017694
FINAL SINGLE POINT ENERGY      -386.230069987701

DIPOLE MOMENT
-------------

Method             : SCF
Type of density    : Electron Density
Multiplicity       :   1
Irrep              :   0
Energy             :  -386.2370350848213434 Eh
Relativity type    :
Basis              : AO
                                X                 Y                 Z
Electronic contribution:      8.582048940       0.486395083      -1.344982203
Nuclear contribution   :     -8.570745104      -0.822337783       2.015555106
                        -----------------------------------------
Total Dipole Moment    :      0.011303836      -0.335942701       0.670572903
                        -----------------------------------------
Magnitude (a.u.)       :      0.750102189
Magnitude (Debye)      :      1.906608243

Rotational constants in cm-1:             0.194652             0.027576             0.026389
Rotational constants in MHz :          5835.525486           826.700255           791.125189

                             ****ORCA TERMINATED NORMALLY****
TOTAL RUN TIME: 0 days 0 hours 0 minutes 27 seconds 982 msec
