                         Program Version 6.0.0  -   RELEASE  -
|  1> ! r2scan-3c def2/J RI DEFGRID2 scfconv6 printgap
|  2> %output
|  3>     printlevel normal
|  4> end
|  5> %cpcm
|  6>     smd true
|  7>     smdsolvent "water"
|  8> end
|  9> * xyz 0 1
| 10> C -3.4481997542 -0.4780004123 -0.4189021512
| 11> C -2.7017558716 0.1886625385 0.7308018969
| 12> C -1.289335769 0.6359526855 0.3551017073
| 13> C -0.3528643153 -0.5441412707 0.065249313
| 14> C 1.0129718491 -0.0350362975 -0.3052959335
| 15> O 1.2598007694 0.6677589493 -1.2633606553
| 16> O 1.9408280484 -0.4332108629 0.5586401328
| 17> C 3.2866061586 -0.0060044422 0.3305598732
| 18> H -3.4559823375 0.1697309497 -1.2925321901
| 19> H -2.9861539754 -1.422395078 -0.6930777865
| 20> H -4.4770187057 -0.6779537946 -0.1305744294
| 21> H -3.2610166708 1.0699511471 1.0504119139
| 22> H -2.6490415376 -0.4969235217 1.5784404457
| 23> H -0.8714648116 1.2210671779 1.1773687483
| 24> H -1.3250301125 1.2785040296 -0.527110392
| 25> H -0.7376170294 -1.1124999265 -0.781792086
| 26> H -0.2645032449 -1.1918847975 0.9363062921
| 27> H 3.6167249005 -0.3271889509 -0.6579719904
| 28> H 3.8784337854 -0.4719930347 1.1118227368
| 29> H 3.3464509432 1.0813416996 0.3882448016
| 30> *
| 31>
| 32>                          ****END OF INPUT****

CARTESIAN COORDINATES (ANGSTROEM)
---------------------------------
  C     -3.448200   -0.478000   -0.418902
  C     -2.701756    0.188663    0.730802
  C     -1.289336    0.635953    0.355102
  C     -0.352864   -0.544141    0.065249
  C      1.012972   -0.035036   -0.305296
  O      1.259801    0.667759   -1.263361
  O      1.940828   -0.433211    0.558640
  C      3.286606   -0.006004    0.330560
  H     -3.455982    0.169731   -1.292532
  H     -2.986154   -1.422395   -0.693078
  H     -4.477019   -0.677954   -0.130574
  H     -3.261017    1.069951    1.050412
  H     -2.649042   -0.496924    1.578440
  H     -0.871465    1.221067    1.177369
  H     -1.325030    1.278504   -0.527110
  H     -0.737617   -1.112500   -0.781792
  H     -0.264503   -1.191885    0.936306
  H      3.616725   -0.327189   -0.657972
  H      3.878434   -0.471993    1.111823
  H      3.346451    1.081342    0.388245

 Total Charge           Charge          ....    0
 Multiplicity           Mult            ....    1
 Number of Electrons    NEL             ....   64
 Basis Dimension        Dim             ....  222

ORBITAL ENERGIES
----------------

  NO   OCC          E(Eh)            E(eV)
   0   2.0000     -19.005091      -517.1548
   1   2.0000     -18.943914      -515.4901
   2   2.0000     -10.161975      -276.5214
   3   2.0000     -10.076370      -274.1920
   4   2.0000     -10.034933      -273.0644
   5   2.0000     -10.026840      -272.8442
   6   2.0000     -10.019698      -272.6498
   7   2.0000     -10.008350      -272.3410
   8   2.0000      -1.080049       -29.3896
   9   2.0000      -0.988966       -26.9111
  10   2.0000      -0.772158       -21.0115
  11   2.0000      -0.722128       -19.6501
  12   2.0000      -0.677803       -18.4440
  13   2.0000      -0.616233       -16.7685
  14   2.0000      -0.543658       -14.7937
  15   2.0000      -0.526622       -14.3301
  16   2.0000      -0.471806       -12.8385
  17   2.0000      -0.459687       -12.5087
  18   2.0000      -0.451441       -12.2843
  19   2.0000      -0.424310       -11.5461
  20   2.0000      -0.405690       -11.0394
  21   2.0000      -0.392152       -10.6710
  22   2.0000      -0.375764       -10.2251
  23   2.0000      -0.361912        -9.8481
  24   2.0000      -0.341138        -9.2828
  25   2.0000      -0.331165        -9.0115
  26   2.0000      -0.325265        -8.8509
  27   2.0000      -0.296564        -8.0699
  28   2.0000      -0.293712        -7.9923
  29   2.0000      -0.288799        -7.8586
  30   2.0000      -0.281376        -7.6566
  31   2.0000      -0.252079        -6.8594
  32   0.0000      -0.023002        -0.6259
  33   0.0000       0.070190         1.9100
  34   0.0000       0.105255         2.8641
  35   0.0000       0.106774         2.9055
  36   0.0000       0.126220         3.4346

MULLIKEN ATOMIC CHARGES
-----------------------
   0 C :   -0.532495
   1 C :   -0.222176
   2 C :   -0.268023
   3 C :   -0.364978
   4 C :    0.429989
   5 O :   -0.510782
   6 O :   -0.203056
   7 C :   -0.330798
   8 H :    0.158287
   9 H :    0.159734
  10 H :    0.158507
  11 H :    0.156185
  12 H :    0.145823
  13 H :    0.156590
  14 H :    0.161039
  15 H :    0.192276
  16 H :    0.178750
  17 H :    0.177759
  18 H :    0.178535
  19 H :    0.178833
Sum of atomic charges:   -0.0000000

LOEWDIN ATOMIC CHARGES
----------------------
   0 C :   -0.433160
   1 C :   -0.314323
   2 C :   -0.284070
   3 C :   -0.225623
   4 C :    0.363680
   5 O :   -0.489426
   6 O :   -0.605692
   7 C :   -0.042555
   8 H :    0.153882
   9 H :    0.152495
  10 H :    0.154304
  11 H :    0.157646
  12 H :    0.156352
  13 H :    0.164359
  14 H :    0.164522
  15 H :    0.189556
  16 H :    0.184938
  17 H :    0.182583
  18 H :    0.188328
  19 H :    0.182203

  Mayer bond orders larger than 0.100000
B(  0-C ,  1-C ) :   0.8828 B(  0-C ,  8-H ) :   0.9803 B(  0-C ,  9-H ) :   0.9774
B(  0-C , 10-H ) :   0.9673 B(  1-C ,  2-C ) :   0.8890 B(  1-C , 11-H ) :   0.9702
B(  1-C , 12-H ) :   0.9795 B(  2-C ,  3-C ) :   0.8893 B(  2-C , 13-H ) :   0.9589
B(  2-C , 14-H ) :   0.9749 B(  3-C ,  4-C ) :   0.9770 B(  3-C , 15-H ) :   0.9441
B(  3-C , 16-H ) :   0.9776 B(  4-C ,  5-O ) :   1.7440 B(  4-C ,  6-O ) :   1.0841
B(  6-O ,  7-C ) :   0.8326 B(  7-C , 17-H ) :   0.9575 B(  7-C , 18-H ) :   0.9592
B(  7-C , 19-H ) :   0.9565

Dispersion correction           -0.005017694
FINAL SINGLE POINT ENERGY      -386.235184404882

DIPOLE MOMENT
-------------

Method             : SCF
Type of density    : Electron Density
Multiplicity       :   1
Irrep              :   0
Energy             :  -386.2421495020015527 Eh
Relativity type    :
Basis              : AO
                                X                 Y                 Z
Electronic contribution:      8.587572865       0.290409525      -1.045627293
Nuclear contribution   :     -8.570745104      -0.822337783       2.015555106
                        -----------------------------------------
Total Dipole Moment    :      0.016827761      -0.531928259       0.969927813
                        -----------------------------------------
Magnitude (a.u.)       :      1.106341181
Magnitude (Debye)      :      2.812095801

Rotational constants in cm-1:             0.194652             0.027576             0.026389
Rotational constants in MHz :          5835.525486           826.700255           791.125189

                             ****ORCA TERMINATED NORMALLY****
TOTAL RUN TIME: 0 days 0 hours 0 minutes 33 seconds 302 msec
