                         Program Version 6.0.1  -  RELEASE   -
|  1> ! pbe def2-sv(p) def2/J RI DEFGRID1 loosescf d4 GCP(DFT/SV(P)) printgap
|  2> %output
|  3>     printlevel normal
|  4> end
|  5> * xyz 0 1
|  6> C -3.8870946745 0.1987882588 -1.9575626881
|  7> C -3.3122404992 -0.3504719885 -0.6553706625
|  8> H -3.5750175168 -1.4033641167 -0.5300466003
|  9> C -1.8088346355 -0.2138979604 -0.5348301983
| 10> C -1.1111730557 0.8368586623 -1.1172135859
| 11> C 0.2587050552 0.9410299337 -0.9695629038
| 12> C 0.9875956616 0.0172561622 -0.2224353881
| 13> C 0.2609583212 -1.0147241119 0.3623438377
| 14> C -1.1044407756 -1.1448148432 0.2191533109
| 15> F 0.9095815403 -1.9703703853 1.0921897879
| 16> C 2.4464994527 0.1409815549 -0.0760182356
| 17> C 3.0601549961 -0.0106922961 1.1643677652
| 18> C 4.4318299263 0.1180637363 1.2858208128
| 19> C 5.2078081096 0.3946203044 0.1727020806
| 20> C 4.6050601799 0.5461817021 -1.0654210894
| 21> C 3.2337892055 0.424280814 -1.1899594303
| 22> C -3.857672008 0.4030378817 0.5460995802
| 23> O -4.1197403459 1.5842580977 0.5613535292
| 24> O -3.9740729325 -0.3763578944 1.6073554669
| 25> H -4.9131504894 -0.1382695059 -2.0780653831
| 26> H -3.8900920739 1.2855501958 -1.9388334401
| 27> H -3.2999117324 -0.1485209662 -2.8021686803
| 28> H -1.6377886756 1.582889863 -1.6883401056
| 29> H 0.7839175101 1.7664388942 -1.4239351027
| 30> H -1.606250609 -1.9714625579 0.6973350971
| 31> H 2.4605025953 -0.2183204624 2.038202471
| 32> H 4.8953552057 0.0020521264 2.2539168311
| 33> H 6.2784631495 0.4906332423 0.2698073496
| 34> H 5.2059452969 0.7581429434 -1.9368460279
| 35> H 2.7665992971 0.5277093532 -2.1577684875
| 36> H -4.2814514909 0.1017834321 2.4023647718
| 37> *
| 38>
| 39>                          ****END OF INPUT****

CARTESIAN COORDINATES (ANGSTROEM)
---------------------------------
  C     -3.887095    0.198788   -1.957563
  C     -3.312240   -0.350472   -0.655371
  H     -3.575018   -1.403364   -0.530047
  C     -1.808835   -0.213898   -0.534830
  C     -1.111173    0.836859   -1.117214
  C      0.258705    0.941030   -0.969563
  C      0.987596    0.017256   -0.222435
  C      0.260958   -1.014724    0.362344
  C     -1.104441   -1.144815    0.219153
  F      0.909582   -1.970370    1.092190
  C      2.446499    0.140982   -0.076018
  C      3.060155   -0.010692    1.164368
  C      4.431830    0.118064    1.285821
  C      5.207808    0.394620    0.172702
  C      4.605060    0.546182   -1.065421
  C      3.233789    0.424281   -1.189959
  C     -3.857672    0.403038    0.546100
  O     -4.119740    1.584258    0.561354
  O     -3.974073   -0.376358    1.607355
  H     -4.913150   -0.138270   -2.078065
  H     -3.890092    1.285550   -1.938833
  H     -3.299912   -0.148521   -2.802169
  H     -1.637789    1.582890   -1.688340
  H      0.783918    1.766439   -1.423935
  H     -1.606251   -1.971463    0.697335
  H      2.460503   -0.218320    2.038202
  H      4.895355    0.002052    2.253917
  H      6.278463    0.490633    0.269807
  H      5.205945    0.758143   -1.936846
  H      2.766599    0.527709   -2.157768
  H     -4.281451    0.101783    2.402365

 Total Charge           Charge          ....    0
 Multiplicity           Mult            ....    1
 Number of Electrons    NEL             ....  128
 Basis Dimension        Dim             ....  278

ORBITAL ENERGIES
----------------

  NO   OCC          E(Eh)            E(eV)
   0   2.0000     -24.269700      -660.4121
   1   2.0000     -18.807695      -511.7834
   2   2.0000     -18.744241      -510.0567
   3   2.0000     -10.018713      -272.6230
   4   2.0000      -9.975567      -271.4490
   5   2.0000      -9.920247      -269.9436
   6   2.0000      -9.918696      -269.9014
   7   2.0000      -9.911612      -269.7087
   8   2.0000      -9.908483      -269.6235
   9   2.0000      -9.903202      -269.4798
  10   2.0000      -9.899944      -269.3912
  11   2.0000      -9.897526      -269.3254
  12   2.0000      -9.895349      -269.2661
  13   2.0000      -9.894726      -269.2492
  14   2.0000      -9.894061      -269.2311
  15   2.0000      -9.893804      -269.2241
  16   2.0000      -9.893552      -269.2172
  17   2.0000      -9.886973      -269.0382
  18   2.0000      -1.094368       -29.7793
  19   2.0000      -1.016346       -27.6562
  20   2.0000      -0.918917       -25.0050
  21   2.0000      -0.799944       -21.7676
  22   2.0000      -0.779254       -21.2046
  23   2.0000      -0.740236       -20.1428
  24   2.0000      -0.696938       -18.9646
  25   2.0000      -0.678239       -18.4558
  26   2.0000      -0.672142       -18.2899
  27   2.0000      -0.647979       -17.6324
  28   2.0000      -0.621051       -16.8997
  29   2.0000      -0.576296       -15.6818
  30   2.0000      -0.564141       -15.3510
  31   2.0000      -0.539364       -14.6768
  32   2.0000      -0.537120       -14.6158
  33   2.0000      -0.523425       -14.2431
  34   2.0000      -0.487856       -13.2752
  35   2.0000      -0.466913       -12.7053
  36   2.0000      -0.456634       -12.4257
  37   2.0000      -0.440819       -11.9953
  38   2.0000      -0.437849       -11.9145
  39   2.0000      -0.422006       -11.4834
  40   2.0000      -0.416853       -11.3431
  41   2.0000      -0.409804       -11.1513
  42   2.0000      -0.400170       -10.8892
  43   2.0000      -0.397079       -10.8051
  44   2.0000      -0.391725       -10.6594
  45   2.0000      -0.380220       -10.3463
  46   2.0000      -0.375427       -10.2159
  47   2.0000      -0.360349        -9.8056
  48   2.0000      -0.357229        -9.7207
  49   2.0000      -0.351274        -9.5587
  50   2.0000      -0.337909        -9.1950
  51   2.0000      -0.333673        -9.0797
  52   2.0000      -0.327722        -8.9178
  53   2.0000      -0.319528        -8.6948
  54   2.0000      -0.314501        -8.5580
  55   2.0000      -0.310025        -8.4362
  56   2.0000      -0.302199        -8.2232
  57   2.0000      -0.292179        -7.9506
  58   2.0000      -0.279868        -7.6156
  59   2.0000      -0.254172        -6.9164
  60   2.0000      -0.232992        -6.3400
  61   2.0000      -0.231885        -6.3099
  62   2.0000      -0.225761        -6.1433
  63   2.0000      -0.207188        -5.6379
  64   0.0000      -0.065393        -1.7794
  65   0.0000      -0.039082        -1.0635
  66   0.0000      -0.036482        -0.9927
  67   0.0000      -0.028733        -0.7819
  68   0.0000      -0.004090        -0.1113

MULLIKEN ATOMIC CHARGES
-----------------------
   0 C :   -0.222318
   1 C :   -0.151368
   2 H :    0.088039
   3 C :    0.106012
   4 C :   -0.100378
   5 C :   -0.112741
   6 C :    0.029695
   7 C :    0.269399
   8 C :   -0.226610
   9 F :   -0.172400
  10 C :    0.111927
  11 C :   -0.095578
  12 C :   -0.052366
  13 C :   -0.045656
  14 C :   -0.049041
  15 C :   -0.109993
  16 C :    0.126794
  17 O :   -0.183367
  18 O :   -0.283511
  19 H :    0.108414
  20 H :    0.130708
  21 H :    0.110366
  22 H :    0.047651
  23 H :    0.050652
  24 H :    0.047172
  25 H :    0.049699
  26 H :    0.054067
  27 H :    0.054866
  28 H :    0.053229
  29 H :    0.048396
  30 H :    0.318242
Sum of atomic charges:    0.0000000

LOEWDIN ATOMIC CHARGES
----------------------
   0 C :   -0.324270
   1 C :   -0.154374
   2 H :    0.135749
   3 C :   -0.022963
   4 C :   -0.125257
   5 C :   -0.101535
   6 C :   -0.055199
   7 C :    0.079895
   8 C :   -0.143645
   9 F :   -0.055665
  10 C :   -0.028055
  11 C :   -0.108267
  12 C :   -0.119971
  13 C :   -0.122296
  14 C :   -0.120856
  15 C :   -0.113782
  16 C :    0.038079
  17 O :   -0.163589
  18 O :   -0.199386
  19 H :    0.126760
  20 H :    0.130006
  21 H :    0.126187
  22 H :    0.130556
  23 H :    0.129993
  24 H :    0.136228
  25 H :    0.125614
  26 H :    0.124907
  27 H :    0.124112
  28 H :    0.124516
  29 H :    0.125251
  30 H :    0.301260

  Mayer bond orders larger than 0.100000
B(  0-C ,  1-C ) :   1.1230 B(  0-C , 19-H ) :   0.9467 B(  0-C , 20-H ) :   0.9206
B(  0-C , 21-H ) :   0.9478 B(  1-C ,  2-H ) :   0.8781 B(  1-C ,  3-C ) :   1.0164
B(  1-C , 16-C ) :   0.9083 B(  3-C ,  4-C ) :   1.3798 B(  3-C ,  8-C ) :   1.3111
B(  4-C ,  5-C ) :   1.3467 B(  4-C , 22-H ) :   0.9592 B(  5-C ,  6-C ) :   1.3638
B(  5-C , 23-H ) :   0.9576 B(  6-C ,  7-C ) :   1.3364 B(  6-C , 10-C ) :   0.9718
B(  7-C ,  8-C ) :   1.3276 B(  7-C ,  9-F ) :   1.1034 B(  8-C , 24-H ) :   0.9676
B( 10-C , 11-C ) :   1.3786 B( 10-C , 15-C ) :   1.3798 B( 11-C , 12-C ) :   1.3753
B( 11-C , 25-H ) :   0.9607 B( 12-C , 13-C ) :   1.3744 B( 12-C , 26-H ) :   0.9631
B( 13-C , 14-C ) :   1.3767 B( 13-C , 27-H ) :   0.9655 B( 14-C , 15-C ) :   1.3713
B( 14-C , 28-H ) :   0.9637 B( 15-C , 29-H ) :   0.9588 B( 16-C , 17-O ) :   2.1082
B( 16-C , 18-O ) :   1.2929 B( 18-O , 30-H ) :   0.8178

Dispersion correction           -0.040117540
FINAL SINGLE POINT ENERGY      -828.018141689757

DIPOLE MOMENT
-------------

Method             : SCF
Type of density    : Electron Density
Multiplicity       :   1
Irrep              :   0
Energy             :  -828.1079264416737260 Eh
Relativity type    :
Basis              : AO
                                X                 Y                 Z
Electronic contribution:      1.567673717      -4.525108014       7.469649252
Nuclear contribution   :     -1.725213416       4.315793487      -7.447927011
                        -----------------------------------------
Total Dipole Moment    :     -0.157539699      -0.209314527       0.021722241
                        -----------------------------------------
Magnitude (a.u.)       :      0.262874844
Magnitude (Debye)      :      0.668174753

Rotational constants in cm-1:             0.036770             0.006560             0.006116
Rotational constants in MHz :          1102.334318           196.653305           183.341727

                             ****ORCA TERMINATED NORMALLY****
TOTAL RUN TIME: 0 days 0 hours 0 minutes 16 seconds 304 msec
