                         Program Version 6.0.0  -   RELEASE  -
|  1> ! r2scan-3c def2/J RI DEFGRID2 scfconv6 printgap
|  2> %output
|  3>     printlevel normal
|  4> end
|  5> * xyz 0 1
|  6> C -3.6331550411 0.007368956 1.8543215594
|  7> C -3.051863261 0.540778041 0.5444341348
|  8> H -3.1565004987 1.6288111254 0.5024536659
|  9> C -1.5839581782 0.193773808 0.3935537109
| 10> C -1.1721847788 -1.1525866538 0.3822180456
| 11> C 0.1481941308 -1.4802213167 0.2571122202
| 12> C 1.1357416528 -0.480961584 0.1349082966
| 13> C 2.5038594213 -0.7990049979 0.0062779856
| 14> C 3.4391123334 0.1981619488 -0.1138083675
| 15> C 3.0291966228 1.5525000865 -0.1087761134
| 16> C 1.7131297558 1.8792128067 0.0145797678
| 17> C 0.7261845295 0.8762261578 0.1397782894
| 18> C -0.6422325013 1.182309355 0.2670037517
| 19> O 4.7835422035 0.0103695789 -0.2432140267
| 20> C 5.2816595033 -1.313478346 -0.2563426675
| 21> C -3.7578756874 -0.0125329085 -0.6743249883
| 22> O -3.9510859258 0.6318095942 -1.6856830282
| 23> O -4.1167373845 -1.2775481189 -0.5612162454
| 24> H -3.0701729427 0.4154555375 2.6891688887
| 25> H -4.6736656174 0.3067724996 1.9508615008
| 26> H -3.5782472667 -1.0760188646 1.8892725246
| 27> H -1.9144893288 -1.9313464636 0.4666537131
| 28> H 0.452522139 -2.5164656596 0.2484168825
| 29> H 2.7838481747 -1.8405304732 0.005626457
| 30> H 3.7948695724 2.3059005083 -0.205782721
| 31> H 1.4068733176 2.9144679976 0.0172668849
| 32> H -0.939290396 2.2212893188 0.2651908252
| 33> H 5.0525425025 -1.8291475031 0.6798289171
| 34> H 6.3590233335 -1.2140311182 -0.3663997694
| 35> H 4.8754896552 -1.8783127053 -1.0994817685
| 36> H -4.5439771434 -1.6204758324 -1.3700519498
| 37> *
| 38>
| 39>                          ****END OF INPUT****

CARTESIAN COORDINATES (ANGSTROEM)
---------------------------------
  C     -3.633155    0.007369    1.854322
  C     -3.051863    0.540778    0.544434
  H     -3.156500    1.628811    0.502454
  C     -1.583958    0.193774    0.393554
  C     -1.172185   -1.152587    0.382218
  C      0.148194   -1.480221    0.257112
  C      1.135742   -0.480962    0.134908
  C      2.503859   -0.799005    0.006278
  C      3.439112    0.198162   -0.113808
  C      3.029197    1.552500   -0.108776
  C      1.713130    1.879213    0.014580
  C      0.726185    0.876226    0.139778
  C     -0.642233    1.182309    0.267004
  O      4.783542    0.010370   -0.243214
  C      5.281660   -1.313478   -0.256343
  C     -3.757876   -0.012533   -0.674325
  O     -3.951086    0.631810   -1.685683
  O     -4.116737   -1.277548   -0.561216
  H     -3.070173    0.415456    2.689169
  H     -4.673666    0.306772    1.950862
  H     -3.578247   -1.076019    1.889273
  H     -1.914489   -1.931346    0.466654
  H      0.452522   -2.516466    0.248417
  H      2.783848   -1.840530    0.005626
  H      3.794870    2.305901   -0.205783
  H      1.406873    2.914468    0.017267
  H     -0.939290    2.221289    0.265191
  H      5.052543   -1.829148    0.679829
  H      6.359023   -1.214031   -0.366400
  H      4.875490   -1.878313   -1.099482
  H     -4.543977   -1.620476   -1.370052

 Total Charge           Charge          ....    0
 Multiplicity           Mult            ....    1
 Number of Electrons    NEL             ....  122
 Basis Dimension        Dim             ....  408

ORBITAL ENERGIES
----------------

  NO   OCC          E(Eh)            E(eV)
   0   2.0000     -19.007957      -517.2328
   1   2.0000     -18.990541      -516.7589
   2   2.0000     -18.930583      -515.1274
   3   2.0000     -10.160676      -276.4861
   4   2.0000     -10.099002      -274.8078
   5   2.0000     -10.090137      -274.5666
   6   2.0000     -10.059502      -273.7330
   7   2.0000     -10.047890      -273.4170
   8   2.0000     -10.047819      -273.4150
   9   2.0000     -10.043051      -273.2853
  10   2.0000     -10.040724      -273.2220
  11   2.0000     -10.037077      -273.1228
  12   2.0000     -10.036539      -273.1081
  13   2.0000     -10.036124      -273.0968
  14   2.0000     -10.035457      -273.0787
  15   2.0000     -10.034250      -273.0458
  16   2.0000     -10.030067      -272.9320
  17   2.0000      -1.081607       -29.4320
  18   2.0000      -1.037854       -28.2414
  19   2.0000      -0.977077       -26.5876
  20   2.0000      -0.849942       -23.1281
  21   2.0000      -0.808821       -22.0091
  22   2.0000      -0.768153       -20.9025
  23   2.0000      -0.744528       -20.2596
  24   2.0000      -0.716731       -19.5032
  25   2.0000      -0.694284       -18.8924
  26   2.0000      -0.669758       -18.2250
  27   2.0000      -0.640727       -17.4351
  28   2.0000      -0.600670       -16.3451
  29   2.0000      -0.594187       -16.1687
  30   2.0000      -0.573568       -15.6076
  31   2.0000      -0.557101       -15.1595
  32   2.0000      -0.505861       -13.7652
  33   2.0000      -0.489227       -13.3125
  34   2.0000      -0.484145       -13.1742
  35   2.0000      -0.452042       -12.3007
  36   2.0000      -0.444942       -12.1075
  37   2.0000      -0.442144       -12.0313
  38   2.0000      -0.440852       -11.9962
  39   2.0000      -0.436571       -11.8797
  40   2.0000      -0.420733       -11.4487
  41   2.0000      -0.413140       -11.2421
  42   2.0000      -0.398468       -10.8429
  43   2.0000      -0.388449       -10.5702
  44   2.0000      -0.381061       -10.3692
  45   2.0000      -0.377876       -10.2825
  46   2.0000      -0.373136       -10.1536
  47   2.0000      -0.363605        -9.8942
  48   2.0000      -0.352503        -9.5921
  49   2.0000      -0.349169        -9.5014
  50   2.0000      -0.329797        -8.9742
  51   2.0000      -0.328510        -8.9392
  52   2.0000      -0.319541        -8.6952
  53   2.0000      -0.309619        -8.4252
  54   2.0000      -0.296933        -8.0800
  55   2.0000      -0.288403        -7.8478
  56   2.0000      -0.281970        -7.6728
  57   2.0000      -0.264783        -7.2051
  58   2.0000      -0.236183        -6.4269
  59   2.0000      -0.218170        -5.9367
  60   2.0000      -0.194449        -5.2912
  61   0.0000      -0.065108        -1.7717
  62   0.0000      -0.038630        -1.0512
  63   0.0000      -0.012802        -0.3484
  64   0.0000      -0.001419        -0.0386
  65   0.0000       0.050111         1.3636

MULLIKEN ATOMIC CHARGES
-----------------------
   0 C :   -0.491937
   1 C :   -0.063093
   2 H :    0.157527
   3 C :    0.158011
   4 C :   -0.218456
   5 C :   -0.309810
   6 C :    0.232859
   7 C :   -0.370935
   8 C :    0.366514
   9 C :   -0.315566
  10 C :   -0.260518
  11 C :    0.168785
  12 C :   -0.281473
  13 O :   -0.180062
  14 C :   -0.331437
  15 C :    0.282890
  16 O :   -0.377956
  17 O :   -0.332619
  18 H :    0.157841
  19 H :    0.152625
  20 H :    0.168123
  21 H :    0.165519
  22 H :    0.138474
  23 H :    0.143765
  24 H :    0.158481
  25 H :    0.144566
  26 H :    0.142151
  27 H :    0.153572
  28 H :    0.156156
  29 H :    0.153914
  30 H :    0.332087
Sum of atomic charges:   -0.0000000

LOEWDIN ATOMIC CHARGES
----------------------
   0 C :   -0.374712
   1 C :   -0.143807
   2 H :    0.188105
   3 C :   -0.074955
   4 C :   -0.144591
   5 C :   -0.144712
   6 C :   -0.045620
   7 C :   -0.162706
   8 C :    0.191167
   9 C :   -0.119867
  10 C :   -0.131870
  11 C :   -0.063720
  12 C :   -0.126060
  13 O :   -0.681469
  14 C :   -0.054491
  15 C :    0.350765
  16 O :   -0.412718
  17 O :   -0.408721
  18 H :    0.160838
  19 H :    0.159171
  20 H :    0.167769
  21 H :    0.181177
  22 H :    0.169530
  23 H :    0.177963
  24 H :    0.182596
  25 H :    0.172742
  26 H :    0.174099
  27 H :    0.165761
  28 H :    0.180644
  29 H :    0.165933
  30 H :    0.301759

  Mayer bond orders larger than 0.100000
B(  0-C ,  1-C ) :   0.9258 B(  0-C , 18-H ) :   0.9725 B(  0-C , 19-H ) :   0.9731
B(  0-C , 20-H ) :   0.9634 B(  1-C ,  2-H ) :   0.9648 B(  1-C ,  3-C ) :   0.8065
B(  1-C , 15-C ) :   0.9825 B(  3-C ,  4-C ) :   1.2456 B(  3-C , 12-C ) :   1.5136
B(  4-C ,  5-C ) :   1.5096 B(  4-C , 21-H ) :   0.9262 B(  5-C ,  6-C ) :   1.1937
B(  5-C , 22-H ) :   0.9612 B(  6-C ,  7-C ) :   1.1844 B(  6-C , 11-C ) :   1.5199
B(  7-C ,  8-C ) :   1.4220 B(  7-C , 23-H ) :   0.9037 B(  8-C ,  9-C ) :   1.2726
B(  8-C , 13-O ) :   1.0628 B(  9-C , 10-C ) :   1.4494 B(  9-C , 24-H ) :   0.9432
B( 10-C , 11-C ) :   1.2055 B( 10-C , 25-H ) :   0.9480 B( 11-C , 12-C ) :   1.2376
B( 12-C , 26-H ) :   0.9329 B( 13-O , 14-C ) :   0.8578 B( 14-C , 27-H ) :   0.9628
B( 14-C , 28-H ) :   0.9680 B( 14-C , 29-H ) :   0.9626 B( 15-C , 16-O ) :   1.9547
B( 15-C , 17-O ) :   1.0298 B( 17-O , 30-H ) :   0.8578

Dispersion correction           -0.013073289
FINAL SINGLE POINT ENERGY      -767.446351366727

DIPOLE MOMENT
-------------

Method             : SCF
Type of density    : Electron Density
Multiplicity       :   1
Irrep              :   0
Energy             :  -767.4469866355857448 Eh
Relativity type    :
Basis              : AO
                                X                 Y                 Z
Electronic contribution:     -2.220552992       2.902087853      -4.739541066
Nuclear contribution   :      2.624037194      -3.868699846       5.285380870
                        -----------------------------------------
Total Dipole Moment    :      0.403484202      -0.966611993       0.545839804
                        -----------------------------------------
Magnitude (a.u.)       :      1.181134767
Magnitude (Debye)      :      3.002205989

Rotational constants in cm-1:             0.044017             0.006963             0.006614
Rotational constants in MHz :          1319.582141           208.738010           198.276396

                             ****ORCA TERMINATED NORMALLY****
TOTAL RUN TIME: 0 days 0 hours 1 minutes 24 seconds 772 msec
