                         Program Version 6.0.0  -   RELEASE  -
|  1> ! r2scan-3c def2/J RI DEFGRID2 scfconv6 printgap
|  2> %output
|  3>     printlevel normal
|  4> end
|  5> %cpcm
|  6>     smd true
|  7>     smdsolvent "water"
|  8> end
|  9> * xyz 0 1
| 10> C -3.6331550411 0.007368956 1.8543215594
| 11> C -3.051863261 0.540778041 0.5444341348
| 12> H -3.1565004987 1.6288111254 0.5024536659
| 13> C -1.5839581782 0.193773808 0.3935537109
| 14> C -1.1721847788 -1.1525866538 0.3822180456
| 15> C 0.1481941308 -1.4802213167 0.2571122202
| 16> C 1.1357416528 -0.480961584 0.1349082966
| 17> C 2.5038594213 -0.7990049979 0.0062779856
| 18> C 3.4391123334 0.1981619488 -0.1138083675
| 19> C 3.0291966228 1.5525000865 -0.1087761134
| 20> C 1.7131297558 1.8792128067 0.0145797678
| 21> C 0.7261845295 0.8762261578 0.1397782894
| 22> C -0.6422325013 1.182309355 0.2670037517
| 23> O 4.7835422035 0.0103695789 -0.2432140267
| 24> C 5.2816595033 -1.313478346 -0.2563426675
| 25> C -3.7578756874 -0.0125329085 -0.6743249883
| 26> O -3.9510859258 0.6318095942 -1.6856830282
| 27> O -4.1167373845 -1.2775481189 -0.5612162454
| 28> H -3.0701729427 0.4154555375 2.6891688887
| 29> H -4.6736656174 0.3067724996 1.9508615008
| 30> H -3.5782472667 -1.0760188646 1.8892725246
| 31> H -1.9144893288 -1.9313464636 0.4666537131
| 32> H 0.452522139 -2.5164656596 0.2484168825
| 33> H 2.7838481747 -1.8405304732 0.005626457
| 34> H 3.7948695724 2.3059005083 -0.205782721
| 35> H 1.4068733176 2.9144679976 0.0172668849
| 36> H -0.939290396 2.2212893188 0.2651908252
| 37> H 5.0525425025 -1.8291475031 0.6798289171
| 38> H 6.3590233335 -1.2140311182 -0.3663997694
| 39> H 4.8754896552 -1.8783127053 -1.0994817685
| 40> H -4.5439771434 -1.6204758324 -1.3700519498
| 41> *
| 42>
| 43>                          ****END OF INPUT****

CARTESIAN COORDINATES (ANGSTROEM)
---------------------------------
  C     -3.633155    0.007369    1.854322
  C     -3.051863    0.540778    0.544434
  H     -3.156500    1.628811    0.502454
  C     -1.583958    0.193774    0.393554
  C     -1.172185   -1.152587    0.382218
  C      0.148194   -1.480221    0.257112
  C      1.135742   -0.480962    0.134908
  C      2.503859   -0.799005    0.006278
  C      3.439112    0.198162   -0.113808
  C      3.029197    1.552500   -0.108776
  C      1.713130    1.879213    0.014580
  C      0.726185    0.876226    0.139778
  C     -0.642233    1.182309    0.267004
  O      4.783542    0.010370   -0.243214
  C      5.281660   -1.313478   -0.256343
  C     -3.757876   -0.012533   -0.674325
  O     -3.951086    0.631810   -1.685683
  O     -4.116737   -1.277548   -0.561216
  H     -3.070173    0.415456    2.689169
  H     -4.673666    0.306772    1.950862
  H     -3.578247   -1.076019    1.889273
  H     -1.914489   -1.931346    0.466654
  H      0.452522   -2.516466    0.248417
  H      2.783848   -1.840530    0.005626
  H      3.794870    2.305901   -0.205783
  H      1.406873    2.914468    0.017267
  H     -0.939290    2.221289    0.265191
  H      5.052543   -1.829148    0.679829
  H      6.359023   -1.214031   -0.366400
  H      4.875490   -1.878313   -1.099482
  H     -4.543977   -1.620476   -1.370052

 Total Charge           Charge          ....    0
 Multiplicity           Mult            ....    1
 Number of Electrons    NEL             ....  122
 Basis Dimension        Dim             ....  408

ORBITAL ENERGIES
----------------

  NO   OCC          E(Eh)            E(eV)
   0   2.0000     -19.004512      -517.1391
   1   2.0000     -18.990488      -516.7574
   2   2.0000     -18.945170      -515.5243
   3   2.0000     -10.169813      -276.7347
   4   2.0000     -10.099180      -274.8127
   5   2.0000     -10.073280      -274.1079
   6   2.0000     -10.055618      -273.6273
   7   2.0000     -10.048752      -273.4404
   8   2.0000     -10.048489      -273.4333
   9   2.0000     -10.044347      -273.3206
  10   2.0000     -10.039612      -273.1917
  11   2.0000     -10.036854      -273.1167
  12   2.0000     -10.035144      -273.0702
  13   2.0000     -10.034941      -273.0646
  14   2.0000     -10.034278      -273.0466
  15   2.0000     -10.031907      -272.9821
  16   2.0000     -10.020950      -272.6839
  17   2.0000      -1.082591       -29.4588
  18   2.0000      -1.036942       -28.2166
  19   2.0000      -0.987901       -26.8822
  20   2.0000      -0.851258       -23.1639
  21   2.0000      -0.808489       -22.0001
  22   2.0000      -0.766443       -20.8560
  23   2.0000      -0.743836       -20.2408
  24   2.0000      -0.713982       -19.4284
  25   2.0000      -0.692388       -18.8408
  26   2.0000      -0.663156       -18.0454
  27   2.0000      -0.635362       -17.2891
  28   2.0000      -0.598509       -16.2863
  29   2.0000      -0.589551       -16.0425
  30   2.0000      -0.571065       -15.5395
  31   2.0000      -0.553501       -15.0615
  32   2.0000      -0.500797       -13.6274
  33   2.0000      -0.487390       -13.2626
  34   2.0000      -0.482623       -13.1328
  35   2.0000      -0.460971       -12.5437
  36   2.0000      -0.446923       -12.1614
  37   2.0000      -0.440109       -11.9760
  38   2.0000      -0.434316       -11.8183
  39   2.0000      -0.433881       -11.8065
  40   2.0000      -0.415878       -11.3166
  41   2.0000      -0.411562       -11.1992
  42   2.0000      -0.394061       -10.7230
  43   2.0000      -0.383594       -10.4381
  44   2.0000      -0.377892       -10.2830
  45   2.0000      -0.377277       -10.2662
  46   2.0000      -0.372263       -10.1298
  47   2.0000      -0.359435        -9.7807
  48   2.0000      -0.349716        -9.5162
  49   2.0000      -0.346514        -9.4291
  50   2.0000      -0.327525        -8.9124
  51   2.0000      -0.323329        -8.7982
  52   2.0000      -0.316598        -8.6151
  53   2.0000      -0.307805        -8.3758
  54   2.0000      -0.297652        -8.0995
  55   2.0000      -0.293230        -7.9792
  56   2.0000      -0.283304        -7.7091
  57   2.0000      -0.268227        -7.2988
  58   2.0000      -0.249366        -6.7856
  59   2.0000      -0.221108        -6.0167
  60   2.0000      -0.196424        -5.3450
  61   0.0000      -0.067158        -1.8275
  62   0.0000      -0.042375        -1.1531
  63   0.0000      -0.017904        -0.4872
  64   0.0000      -0.003819        -0.1039
  65   0.0000       0.062804         1.7090

MULLIKEN ATOMIC CHARGES
-----------------------
   0 C :   -0.541891
   1 C :   -0.029967
   2 H :    0.184345
   3 C :    0.114495
   4 C :   -0.224933
   5 C :   -0.336229
   6 C :    0.176584
   7 C :   -0.346245
   8 C :    0.349179
   9 C :   -0.345578
  10 C :   -0.293980
  11 C :    0.129812
  12 C :   -0.291015
  13 O :   -0.220373
  14 C :   -0.339027
  15 C :    0.309129
  16 O :   -0.468507
  17 O :   -0.349104
  18 H :    0.172587
  19 H :    0.172480
  20 H :    0.180930
  21 H :    0.191006
  22 H :    0.174062
  23 H :    0.184792
  24 H :    0.185878
  25 H :    0.180764
  26 H :    0.179855
  27 H :    0.172044
  28 H :    0.174759
  29 H :    0.172042
  30 H :    0.382106
Sum of atomic charges:   -0.0000000

LOEWDIN ATOMIC CHARGES
----------------------
   0 C :   -0.377077
   1 C :   -0.141448
   2 H :    0.196286
   3 C :   -0.083105
   4 C :   -0.150485
   5 C :   -0.150093
   6 C :   -0.060619
   7 C :   -0.161223
   8 C :    0.180080
   9 C :   -0.130913
  10 C :   -0.138168
  11 C :   -0.078920
  12 C :   -0.133232
  13 O :   -0.706142
  14 C :   -0.050060
  15 C :    0.361133
  16 O :   -0.480380
  17 O :   -0.390459
  18 H :    0.165543
  19 H :    0.166064
  20 H :    0.170711
  21 H :    0.190236
  22 H :    0.183170
  23 H :    0.193805
  24 H :    0.191311
  25 H :    0.185634
  26 H :    0.187295
  27 H :    0.175281
  28 H :    0.187650
  29 H :    0.175296
  30 H :    0.322827

  Mayer bond orders larger than 0.100000
B(  0-C ,  1-C ) :   0.9005 B(  0-C , 18-H ) :   0.9694 B(  0-C , 19-H ) :   0.9683
B(  0-C , 20-H ) :   0.9632 B(  1-C ,  2-H ) :   0.9656 B(  1-C ,  3-C ) :   0.8024
B(  1-C , 15-C ) :   0.9788 B(  3-C ,  4-C ) :   1.2136 B(  3-C , 12-C ) :   1.4930
B(  4-C ,  5-C ) :   1.4780 B(  4-C , 21-H ) :   0.9380 B(  5-C ,  6-C ) :   1.1923
B(  5-C , 22-H ) :   0.9776 B(  6-C ,  7-C ) :   1.2058 B(  6-C , 11-C ) :   1.4161
B(  7-C ,  8-C ) :   1.4124 B(  7-C , 23-H ) :   0.9094 B(  8-C ,  9-C ) :   1.2200
B(  8-C , 13-O ) :   1.0489 B(  9-C , 10-C ) :   1.4426 B(  9-C , 24-H ) :   0.9544
B( 10-C , 11-C ) :   1.2106 B( 10-C , 25-H ) :   0.9572 B( 11-C , 12-C ) :   1.2360
B( 12-C , 26-H ) :   0.9471 B( 13-O , 14-C ) :   0.8501 B( 14-C , 27-H ) :   0.9550
B( 14-C , 28-H ) :   0.9602 B( 14-C , 29-H ) :   0.9548 B( 15-C , 16-O ) :   1.8771
B( 15-C , 17-O ) :   1.0775 B( 17-O , 30-H ) :   0.8333

Dispersion correction           -0.013073289
FINAL SINGLE POINT ENERGY      -767.462147905409

DIPOLE MOMENT
-------------

Method             : SCF
Type of density    : Electron Density
Multiplicity       :   1
Irrep              :   0
Energy             :  -767.4627831742681110 Eh
Relativity type    :
Basis              : AO
                                X                 Y                 Z
Electronic contribution:     -2.279354089       2.450870363      -4.470470399
Nuclear contribution   :      2.624037194      -3.868699846       5.285380870
                        -----------------------------------------
Total Dipole Moment    :      0.344683105      -1.417829483       0.814910472
                        -----------------------------------------
Magnitude (a.u.)       :      1.671264780
Magnitude (Debye)      :      4.248017474

Rotational constants in cm-1:             0.044017             0.006963             0.006614
Rotational constants in MHz :          1319.582141           208.738010           198.276396

                             ****ORCA TERMINATED NORMALLY****
TOTAL RUN TIME: 0 days 0 hours 1 minutes 47 seconds 479 msec
