                         Program Version 6.0.0  -   RELEASE  -
|  1> ! pbe def2-sv(p) def2/J RI DEFGRID1 loosescf d4 GCP(DFT/SV(P)) printgap
|  2> %output
|  3>     printlevel normal
|  4> end
|  5> * xyz 0 1
|  6> C 2.3857691735 0.6226955983 0.6244492277
|  7> C 1.1331168312 -0.132811583 0.17300592
|  8> C 1.3364936982 -0.6525845862 -1.2587239738
|  9> N 0.0036875559 0.7620310354 0.3628130227
| 10> C -1.3729316405 0.2900725818 0.2785650181
| 11> C -1.5827054302 -0.9971036782 1.071631641
| 12> C -1.9260537952 0.1376055774 -1.1480595325
| 13> H 2.2348993008 1.0248316922 1.6217642301
| 14> H 3.2455392125 -0.0412907555 0.6368857034
| 15> H 2.5922978647 1.4476991732 -0.0538531391
| 16> H 0.9891509752 -0.9865515627 0.8421466179
| 17> H 1.3277166044 0.1752892377 -1.9656460546
| 18> H 0.5596755679 -1.3584664813 -1.5395537008
| 19> H 2.2952363709 -1.1599268557 -1.3336240314
| 20> H 0.1139280842 1.5757864314 -0.2329889491
| 21> H -1.9592237174 1.0835997269 0.7664464756
| 22> H -1.1275422431 -1.8458853724 0.5668109969
| 23> H -1.1505162093 -0.900031981 2.0636524924
| 24> H -2.6472469346 -1.1907915164 1.171861398
| 25> H -1.7146377676 1.0298542094 -1.7344468784
| 26> H -3.004015035 0.0012283657 -1.1092810912
| 27> H -1.49296136 -0.7205825654 -1.6541202169
| 28> *
| 29>
| 30>                          ****END OF INPUT****

CARTESIAN COORDINATES (ANGSTROEM)
---------------------------------
  C      2.385769    0.622696    0.624449
  C      1.133117   -0.132812    0.173006
  C      1.336494   -0.652585   -1.258724
  N      0.003688    0.762031    0.362813
  C     -1.372932    0.290073    0.278565
  C     -1.582705   -0.997104    1.071632
  C     -1.926054    0.137606   -1.148060
  H      2.234899    1.024832    1.621764
  H      3.245539   -0.041291    0.636886
  H      2.592298    1.447699   -0.053853
  H      0.989151   -0.986552    0.842147
  H      1.327717    0.175289   -1.965646
  H      0.559676   -1.358466   -1.539554
  H      2.295236   -1.159927   -1.333624
  H      0.113928    1.575786   -0.232989
  H     -1.959224    1.083600    0.766446
  H     -1.127542   -1.845885    0.566811
  H     -1.150516   -0.900032    2.063652
  H     -2.647247   -1.190792    1.171861
  H     -1.714638    1.029854   -1.734447
  H     -3.004015    0.001228   -1.109281
  H     -1.492961   -0.720583   -1.654120

 Total Charge           Charge          ....    0
 Multiplicity           Mult            ....    1
 Number of Electrons    NEL             ....   58
 Basis Dimension        Dim             ....  128

ORBITAL ENERGIES
----------------

  NO   OCC          E(Eh)            E(eV)
   0   2.0000     -13.956529      -379.7765
   1   2.0000      -9.914470      -269.7864
   2   2.0000      -9.912618      -269.7361
   3   2.0000      -9.871947      -268.6293
   4   2.0000      -9.869247      -268.5559
   5   2.0000      -9.868755      -268.5425
   6   2.0000      -9.866026      -268.4682
   7   2.0000      -0.814170       -22.1547
   8   2.0000      -0.704480       -19.1699
   9   2.0000      -0.652952       -17.7677
  10   2.0000      -0.612439       -16.6653
  11   2.0000      -0.605528       -16.4773
  12   2.0000      -0.532764       -14.4973
  13   2.0000      -0.496913       -13.5217
  14   2.0000      -0.435023       -11.8376
  15   2.0000      -0.412295       -11.2191
  16   2.0000      -0.394945       -10.7470
  17   2.0000      -0.381498       -10.3811
  18   2.0000      -0.363551        -9.8927
  19   2.0000      -0.351701        -9.5703
  20   2.0000      -0.342483        -9.3194
  21   2.0000      -0.338690        -9.2162
  22   2.0000      -0.331620        -9.0238
  23   2.0000      -0.315325        -8.5804
  24   2.0000      -0.303413        -8.2563
  25   2.0000      -0.293382        -7.9833
  26   2.0000      -0.284793        -7.7496
  27   2.0000      -0.275824        -7.5055
  28   2.0000      -0.161170        -4.3857
  29   0.0000       0.028615         0.7787
  30   0.0000       0.055137         1.5004
  31   0.0000       0.060245         1.6393
  32   0.0000       0.072726         1.9790
  33   0.0000       0.091509         2.4901

MULLIKEN ATOMIC CHARGES
-----------------------
   0 C :   -0.237019
   1 C :   -0.100453
   2 C :   -0.236913
   3 N :   -0.323163
   4 C :   -0.065477
   5 C :   -0.273116
   6 C :   -0.247648
   7 H :    0.102256
   8 H :    0.094714
   9 H :    0.085273
  10 H :    0.074056
  11 H :    0.081008
  12 H :    0.107611
  13 H :    0.090778
  14 H :    0.189224
  15 H :    0.065800
  16 H :    0.103581
  17 H :    0.112045
  18 H :    0.102087
  19 H :    0.087874
  20 H :    0.090277
  21 H :    0.097206
Sum of atomic charges:   -0.0000000

LOEWDIN ATOMIC CHARGES
----------------------
   0 C :   -0.335809
   1 C :   -0.104823
   2 C :   -0.351028
   3 N :   -0.243401
   4 C :   -0.103273
   5 C :   -0.337313
   6 C :   -0.351739
   7 H :    0.119692
   8 H :    0.116799
   9 H :    0.112702
  10 H :    0.113181
  11 H :    0.113321
  12 H :    0.113835
  13 H :    0.118138
  14 H :    0.202244
  15 H :    0.109581
  16 H :    0.116544
  17 H :    0.122844
  18 H :    0.123218
  19 H :    0.112249
  20 H :    0.117992
  21 H :    0.115046

  Mayer bond orders larger than 0.100000
B(  0-C ,  1-C ) :   1.1192 B(  0-C ,  7-H ) :   0.9477 B(  0-C ,  8-H ) :   0.9484
B(  0-C ,  9-H ) :   0.9497 B(  1-C ,  2-C ) :   1.0882 B(  1-C ,  3-N ) :   1.0686
B(  1-C , 10-H ) :   0.8934 B(  2-C , 11-H ) :   0.9420 B(  2-C , 12-H ) :   0.9378
B(  2-C , 13-H ) :   0.9399 B(  3-N ,  4-C ) :   1.0934 B(  3-N , 14-H ) :   0.8730
B(  4-C ,  5-C ) :   1.1257 B(  4-C ,  6-C ) :   1.0889 B(  4-C , 15-H ) :   0.9120
B(  5-C , 16-H ) :   0.9401 B(  5-C , 17-H ) :   0.9405 B(  5-C , 18-H ) :   0.9478
B(  6-C , 19-H ) :   0.9477 B(  6-C , 20-H ) :   0.9387 B(  6-C , 21-H ) :   0.9381

Dispersion correction           -0.018028670
FINAL SINGLE POINT ENERGY      -291.669869931072

DIPOLE MOMENT
-------------

Method             : SCF
Type of density    : Electron Density
Multiplicity       :   1
Irrep              :   0
Energy             :  -291.7489158521801755 Eh
Relativity type    :
Basis              : AO
                                X                 Y                 Z
Electronic contribution:     -0.318239081       1.688975149       1.585846655
Nuclear contribution   :      0.246100847      -1.745732155      -1.831136267
                        -----------------------------------------
Total Dipole Moment    :     -0.072138235      -0.056757006      -0.245289612
                        -----------------------------------------
Magnitude (a.u.)       :      0.261901272
Magnitude (Debye)      :      0.665700130

Rotational constants in cm-1:             0.130327             0.054286             0.048741
Rotational constants in MHz :          3907.107661          1627.451230          1461.203603

                             ****ORCA TERMINATED NORMALLY****
TOTAL RUN TIME: 0 days 0 hours 0 minutes 10 seconds 665 msec
