                         Program Version 6.0.0  -   RELEASE  -
|  1> ! r2scan-3c def2/J RI DEFGRID2 scfconv6 printgap
|  2> %output
|  3>     printlevel normal
|  4> end
|  5> * xyz 0 1
|  6> C -3.4787814343 -0.0935338075 -0.4077219735
|  7> C -2.6014479682 -0.2332323177 0.8308012233
|  8> C -1.1863887187 0.310415673 0.6332493792
|  9> C -0.3761597648 -0.5084488241 -0.3837392204
| 10> C 1.0176213072 0.0505094071 -0.4547374138
| 11> O 1.3897690052 0.9058835973 -1.2312284513
| 12> O 1.8072448022 -0.4804625783 0.4723483316
| 13> C 3.1502605852 0.0030082025 0.5558785471
| 14> H -4.4966401721 -0.4007560396 -0.1814329518
| 15> H -3.4991228514 0.9405330662 -0.7442104398
| 16> H -3.1119305348 -0.7139024386 -1.2206908734
| 17> H -3.0619565876 0.3171136965 1.6534798632
| 18> H -2.5465145708 -1.2834031027 1.1225283554
| 19> H -0.6614379266 0.2908216333 1.5907274145
| 20> H -1.2353599731 1.3478104337 0.2949278447
| 21> H -0.8281269687 -0.4353098925 -1.3712525631
| 22> H -0.3277197457 -1.5476567055 -0.0613232995
| 23> H 3.1496927986 1.0553342713 0.8421455453
| 24> H 3.6446970416 -0.1008677391 -0.4106223999
| 25> H 3.6348749612 -0.6066523478 1.3117469652
| 26> *
| 27>
| 28>                          ****END OF INPUT****

CARTESIAN COORDINATES (ANGSTROEM)
---------------------------------
  C     -3.478781   -0.093534   -0.407722
  C     -2.601448   -0.233232    0.830801
  C     -1.186389    0.310416    0.633249
  C     -0.376160   -0.508449   -0.383739
  C      1.017621    0.050509   -0.454737
  O      1.389769    0.905884   -1.231228
  O      1.807245   -0.480463    0.472348
  C      3.150261    0.003008    0.555879
  H     -4.496640   -0.400756   -0.181433
  H     -3.499123    0.940533   -0.744210
  H     -3.111931   -0.713902   -1.220691
  H     -3.061957    0.317114    1.653480
  H     -2.546515   -1.283403    1.122528
  H     -0.661438    0.290822    1.590727
  H     -1.235360    1.347810    0.294928
  H     -0.828127   -0.435310   -1.371253
  H     -0.327720   -1.547657   -0.061323
  H      3.149693    1.055334    0.842146
  H      3.644697   -0.100868   -0.410622
  H      3.634875   -0.606652    1.311747

 Total Charge           Charge          ....    0
 Multiplicity           Mult            ....    1
 Number of Electrons    NEL             ....   64
 Basis Dimension        Dim             ....  222

ORBITAL ENERGIES
----------------

  NO   OCC          E(Eh)            E(eV)
   0   2.0000     -18.998591      -516.9779
   1   2.0000     -18.927628      -515.0469
   2   2.0000     -10.151052      -276.2242
   3   2.0000     -10.086435      -274.4659
   4   2.0000     -10.041102      -273.2323
   5   2.0000     -10.037457      -273.1331
   6   2.0000     -10.031796      -272.9791
   7   2.0000     -10.020119      -272.6613
   8   2.0000      -1.072579       -29.1864
   9   2.0000      -0.974471       -26.5167
  10   2.0000      -0.781115       -21.2552
  11   2.0000      -0.728142       -19.8137
  12   2.0000      -0.683757       -18.6060
  13   2.0000      -0.625546       -17.0220
  14   2.0000      -0.550606       -14.9827
  15   2.0000      -0.533128       -14.5072
  16   2.0000      -0.471629       -12.8337
  17   2.0000      -0.453456       -12.3392
  18   2.0000      -0.449824       -12.2403
  19   2.0000      -0.425448       -11.5770
  20   2.0000      -0.414933       -11.2909
  21   2.0000      -0.396920       -10.8007
  22   2.0000      -0.376498       -10.2450
  23   2.0000      -0.369590       -10.0570
  24   2.0000      -0.350999        -9.5512
  25   2.0000      -0.336458        -9.1555
  26   2.0000      -0.323904        -8.8139
  27   2.0000      -0.306369        -8.3367
  28   2.0000      -0.305408        -8.3106
  29   2.0000      -0.299322        -8.1450
  30   2.0000      -0.272727        -7.4213
  31   2.0000      -0.233208        -6.3459
  32   0.0000      -0.014702        -0.4001
  33   0.0000       0.063972         1.7408
  34   0.0000       0.092753         2.5239
  35   0.0000       0.097886         2.6636
  36   0.0000       0.114355         3.1118

MULLIKEN ATOMIC CHARGES
-----------------------
   0 C :   -0.489072
   1 C :   -0.213443
   2 C :   -0.260411
   3 C :   -0.346461
   4 C :    0.390663
   5 O :   -0.419064
   6 O :   -0.191219
   7 C :   -0.293508
   8 H :    0.148552
   9 H :    0.148963
  10 H :    0.146703
  11 H :    0.145502
  12 H :    0.133867
  13 H :    0.148285
  14 H :    0.155308
  15 H :    0.164782
  16 H :    0.157792
  17 H :    0.158575
  18 H :    0.164237
  19 H :    0.149949
Sum of atomic charges:   -0.0000000

LOEWDIN ATOMIC CHARGES
----------------------
   0 C :   -0.424279
   1 C :   -0.314148
   2 C :   -0.281971
   3 C :   -0.228080
   4 C :    0.350828
   5 O :   -0.422824
   6 O :   -0.605260
   7 C :   -0.044490
   8 H :    0.152093
   9 H :    0.152290
  10 H :    0.148982
  11 H :    0.154550
  12 H :    0.152314
  13 H :    0.162685
  14 H :    0.162934
  15 H :    0.177996
  16 H :    0.177000
  17 H :    0.175208
  18 H :    0.178335
  19 H :    0.175837

  Mayer bond orders larger than 0.100000
B(  0-C ,  1-C ) :   0.8952 B(  0-C ,  8-H ) :   0.9692 B(  0-C ,  9-H ) :   0.9810
B(  0-C , 10-H ) :   0.9817 B(  1-C ,  2-C ) :   0.8962 B(  1-C , 11-H ) :   0.9676
B(  1-C , 12-H ) :   0.9831 B(  2-C ,  3-C ) :   0.9144 B(  2-C , 13-H ) :   0.9617
B(  2-C , 14-H ) :   0.9681 B(  3-C ,  4-C ) :   0.9792 B(  3-C , 15-H ) :   0.9614
B(  3-C , 16-H ) :   0.9815 B(  4-C ,  5-O ) :   1.8290 B(  4-C ,  6-O ) :   1.0400
B(  6-O ,  7-C ) :   0.8519 B(  7-C , 17-H ) :   0.9611 B(  7-C , 18-H ) :   0.9644
B(  7-C , 19-H ) :   0.9694

Dispersion correction           -0.005055260
FINAL SINGLE POINT ENERGY      -386.229876909941

DIPOLE MOMENT
-------------

Method             : SCF
Type of density    : Electron Density
Multiplicity       :   1
Irrep              :   0
Energy             :  -386.2367613642844049 Eh
Relativity type    :
Basis              : AO
                                X                 Y                 Z
Electronic contribution:      8.621777111       0.592568768      -1.946659225
Nuclear contribution   :     -8.714643805      -1.060326496       2.640028300
                        -----------------------------------------
Total Dipole Moment    :     -0.092866695      -0.467757728       0.693369075
                        -----------------------------------------
Magnitude (a.u.)       :      0.841535614
Magnitude (Debye)      :      2.139013541

Rotational constants in cm-1:             0.178361             0.028969             0.026744
Rotational constants in MHz :          5347.114238           868.454984           801.752821

                             ****ORCA TERMINATED NORMALLY****
TOTAL RUN TIME: 0 days 0 hours 0 minutes 25 seconds 431 msec
