                         Program Version 6.0.0  -   RELEASE  -
|  1> ! r2scan-3c def2/J RI DEFGRID2 scfconv6 printgap
|  2> %output
|  3>     printlevel normal
|  4> end
|  5> %cpcm
|  6>     smd true
|  7>     smdsolvent "water"
|  8> end
|  9> * xyz 0 1
| 10> C -3.4787814343 -0.0935338075 -0.4077219735
| 11> C -2.6014479682 -0.2332323177 0.8308012233
| 12> C -1.1863887187 0.310415673 0.6332493792
| 13> C -0.3761597648 -0.5084488241 -0.3837392204
| 14> C 1.0176213072 0.0505094071 -0.4547374138
| 15> O 1.3897690052 0.9058835973 -1.2312284513
| 16> O 1.8072448022 -0.4804625783 0.4723483316
| 17> C 3.1502605852 0.0030082025 0.5558785471
| 18> H -4.4966401721 -0.4007560396 -0.1814329518
| 19> H -3.4991228514 0.9405330662 -0.7442104398
| 20> H -3.1119305348 -0.7139024386 -1.2206908734
| 21> H -3.0619565876 0.3171136965 1.6534798632
| 22> H -2.5465145708 -1.2834031027 1.1225283554
| 23> H -0.6614379266 0.2908216333 1.5907274145
| 24> H -1.2353599731 1.3478104337 0.2949278447
| 25> H -0.8281269687 -0.4353098925 -1.3712525631
| 26> H -0.3277197457 -1.5476567055 -0.0613232995
| 27> H 3.1496927986 1.0553342713 0.8421455453
| 28> H 3.6446970416 -0.1008677391 -0.4106223999
| 29> H 3.6348749612 -0.6066523478 1.3117469652
| 30> *
| 31>
| 32>                          ****END OF INPUT****

CARTESIAN COORDINATES (ANGSTROEM)
---------------------------------
  C     -3.478781   -0.093534   -0.407722
  C     -2.601448   -0.233232    0.830801
  C     -1.186389    0.310416    0.633249
  C     -0.376160   -0.508449   -0.383739
  C      1.017621    0.050509   -0.454737
  O      1.389769    0.905884   -1.231228
  O      1.807245   -0.480463    0.472348
  C      3.150261    0.003008    0.555879
  H     -4.496640   -0.400756   -0.181433
  H     -3.499123    0.940533   -0.744210
  H     -3.111931   -0.713902   -1.220691
  H     -3.061957    0.317114    1.653480
  H     -2.546515   -1.283403    1.122528
  H     -0.661438    0.290822    1.590727
  H     -1.235360    1.347810    0.294928
  H     -0.828127   -0.435310   -1.371253
  H     -0.327720   -1.547657   -0.061323
  H      3.149693    1.055334    0.842146
  H      3.644697   -0.100868   -0.410622
  H      3.634875   -0.606652    1.311747

 Total Charge           Charge          ....    0
 Multiplicity           Mult            ....    1
 Number of Electrons    NEL             ....   64
 Basis Dimension        Dim             ....  222

ORBITAL ENERGIES
----------------

  NO   OCC          E(Eh)            E(eV)
   0   2.0000     -19.004305      -517.1334
   1   2.0000     -18.944137      -515.4962
   2   2.0000     -10.161833      -276.5175
   3   2.0000     -10.076513      -274.1959
   4   2.0000     -10.035010      -273.0665
   5   2.0000     -10.028448      -272.8879
   6   2.0000     -10.020067      -272.6599
   7   2.0000     -10.008398      -272.3424
   8   2.0000      -1.079936       -29.3865
   9   2.0000      -0.988794       -26.9064
  10   2.0000      -0.773528       -21.0488
  11   2.0000      -0.722034       -19.6476
  12   2.0000      -0.676564       -18.4102
  13   2.0000      -0.616971       -16.7886
  14   2.0000      -0.542455       -14.7610
  15   2.0000      -0.529977       -14.4214
  16   2.0000      -0.471452       -12.8289
  17   2.0000      -0.458752       -12.4833
  18   2.0000      -0.450982       -12.2719
  19   2.0000      -0.423162       -11.5148
  20   2.0000      -0.405565       -11.0360
  21   2.0000      -0.394190       -10.7265
  22   2.0000      -0.372945       -10.1483
  23   2.0000      -0.362269        -9.8578
  24   2.0000      -0.345316        -9.3965
  25   2.0000      -0.329314        -8.9611
  26   2.0000      -0.325383        -8.8541
  27   2.0000      -0.298975        -8.1355
  28   2.0000      -0.296071        -8.0565
  29   2.0000      -0.290049        -7.8926
  30   2.0000      -0.279554        -7.6070
  31   2.0000      -0.249591        -6.7917
  32   0.0000      -0.023233        -0.6322
  33   0.0000       0.069153         1.8818
  34   0.0000       0.101583         2.7642
  35   0.0000       0.107992         2.9386
  36   0.0000       0.124680         3.3927

MULLIKEN ATOMIC CHARGES
-----------------------
   0 C :   -0.528628
   1 C :   -0.228369
   2 C :   -0.255497
   3 C :   -0.374970
   4 C :    0.437878
   5 O :   -0.506790
   6 O :   -0.205341
   7 C :   -0.328481
   8 H :    0.158271
   9 H :    0.157425
  10 H :    0.160035
  11 H :    0.155917
  12 H :    0.146351
  13 H :    0.157777
  14 H :    0.160349
  15 H :    0.180297
  16 H :    0.179202
  17 H :    0.178475
  18 H :    0.177681
  19 H :    0.178417
Sum of atomic charges:    0.0000000

LOEWDIN ATOMIC CHARGES
----------------------
   0 C :   -0.432515
   1 C :   -0.313597
   2 C :   -0.280566
   3 C :   -0.226076
   4 C :    0.360263
   5 O :   -0.486025
   6 O :   -0.606317
   7 C :   -0.042110
   8 H :    0.154112
   9 H :    0.153834
  10 H :    0.152689
  11 H :    0.157684
  12 H :    0.156227
  13 H :    0.165779
  14 H :    0.164007
  15 H :    0.183396
  16 H :    0.186424
  17 H :    0.181731
  18 H :    0.182769
  19 H :    0.188290

  Mayer bond orders larger than 0.100000
B(  0-C ,  1-C ) :   0.8878 B(  0-C ,  8-H ) :   0.9672 B(  0-C ,  9-H ) :   0.9794
B(  0-C , 10-H ) :   0.9778 B(  1-C ,  2-C ) :   0.8912 B(  1-C , 11-H ) :   0.9677
B(  1-C , 12-H ) :   0.9828 B(  2-C ,  3-C ) :   0.9041 B(  2-C , 13-H ) :   0.9587
B(  2-C , 14-H ) :   0.9664 B(  3-C ,  4-C ) :   0.9730 B(  3-C , 15-H ) :   0.9625
B(  3-C , 16-H ) :   0.9709 B(  4-C ,  5-O ) :   1.7596 B(  4-C ,  6-O ) :   1.0663
B(  6-O ,  7-C ) :   0.8319 B(  7-C , 17-H ) :   0.9556 B(  7-C , 18-H ) :   0.9590
B(  7-C , 19-H ) :   0.9593

Dispersion correction           -0.005055260
FINAL SINGLE POINT ENERGY      -386.235088173342

DIPOLE MOMENT
-------------

Method             : SCF
Type of density    : Electron Density
Multiplicity       :   1
Irrep              :   0
Energy             :  -386.2419726276860956 Eh
Relativity type    :
Basis              : AO
                                X                 Y                 Z
Electronic contribution:      8.592140477       0.362780454      -1.679556880
Nuclear contribution   :     -8.714643805      -1.060326496       2.640028300
                        -----------------------------------------
Total Dipole Moment    :     -0.122503329      -0.697546042       0.960471420
                        -----------------------------------------
Magnitude (a.u.)       :      1.193349444
Magnitude (Debye)      :      3.033253231

Rotational constants in cm-1:             0.178361             0.028969             0.026744
Rotational constants in MHz :          5347.114238           868.454984           801.752821

                             ****ORCA TERMINATED NORMALLY****
TOTAL RUN TIME: 0 days 0 hours 0 minutes 33 seconds 327 msec
