                         Program Version 6.0.0  -   RELEASE  -
|  1> ! r2scan-3c def2/J RI DEFGRID2 scfconv6 printgap
|  2> %output
|  3>     printlevel normal
|  4> end
|  5> * xyz 0 1
|  6> C -2.1421757243 -1.3964193165 -0.45705976
|  7> C -2.0459835267 -0.4414657679 0.7265167613
|  8> C -1.4733485569 0.9192416679 0.3121959134
|  9> C -0.0525336509 0.7938812992 -0.175452118
| 10> O 0.3315315394 1.124614027 -1.2786828123
| 11> O 0.7439952047 0.2904869059 0.7587659652
| 12> C 2.1281582825 0.0807964333 0.4381286635
| 13> C 2.3380253752 -1.2652059407 -0.2389321845
| 14> H -2.549428326 -2.3531981344 -0.1415048833
| 15> H -2.7866633099 -0.9832930242 -1.2295292995
| 16> H -1.1599554857 -1.5669318715 -0.8938654765
| 17> H -1.4082459479 -0.8723624479 1.4993148984
| 18> H -3.0388850087 -0.2853414755 1.1494747193
| 19> H -1.470810339 1.5889008395 1.1731688311
| 20> H -2.0673288784 1.3606645458 -0.4881220388
| 21> H 2.4636360991 0.8946104672 -0.2120763212
| 22> H 2.6419466269 0.1260075421 1.398768166
| 23> H 1.9473243285 -2.0642780725 0.3854664483
| 24> H 1.827307832 -1.2826078122 -1.1994913079
| 25> H 3.398738542 -1.4242654873 -0.4028787374
| 26> *
| 27>
| 28>                          ****END OF INPUT****

CARTESIAN COORDINATES (ANGSTROEM)
---------------------------------
  C     -2.142176   -1.396419   -0.457060
  C     -2.045984   -0.441466    0.726517
  C     -1.473349    0.919242    0.312196
  C     -0.052534    0.793881   -0.175452
  O      0.331532    1.124614   -1.278683
  O      0.743995    0.290487    0.758766
  C      2.128158    0.080796    0.438129
  C      2.338025   -1.265206   -0.238932
  H     -2.549428   -2.353198   -0.141505
  H     -2.786663   -0.983293   -1.229529
  H     -1.159955   -1.566932   -0.893865
  H     -1.408246   -0.872362    1.499315
  H     -3.038885   -0.285341    1.149475
  H     -1.470810    1.588901    1.173169
  H     -2.067329    1.360665   -0.488122
  H      2.463636    0.894610   -0.212076
  H      2.641947    0.126008    1.398768
  H      1.947324   -2.064278    0.385466
  H      1.827308   -1.282608   -1.199491
  H      3.398739   -1.424265   -0.402879

 Total Charge           Charge          ....    0
 Multiplicity           Mult            ....    1
 Number of Electrons    NEL             ....   64
 Basis Dimension        Dim             ....  222

ORBITAL ENERGIES
----------------

  NO   OCC          E(Eh)            E(eV)
   0   2.0000     -18.996143      -516.9113
   1   2.0000     -18.926929      -515.0279
   2   2.0000     -10.151033      -276.2236
   3   2.0000     -10.091528      -274.6044
   4   2.0000     -10.040618      -273.2191
   5   2.0000     -10.036400      -273.1043
   6   2.0000     -10.029258      -272.9100
   7   2.0000     -10.020472      -272.6709
   8   2.0000      -1.071324       -29.1522
   9   2.0000      -0.974217       -26.5098
  10   2.0000      -0.775708       -21.1081
  11   2.0000      -0.738219       -20.0880
  12   2.0000      -0.677535       -18.4367
  13   2.0000      -0.624104       -16.9827
  14   2.0000      -0.571046       -15.5390
  15   2.0000      -0.521459       -14.1896
  16   2.0000      -0.472190       -12.8489
  17   2.0000      -0.456668       -12.4266
  18   2.0000      -0.432842       -11.7782
  19   2.0000      -0.424070       -11.5395
  20   2.0000      -0.410357       -11.1664
  21   2.0000      -0.394228       -10.7275
  22   2.0000      -0.373029       -10.1506
  23   2.0000      -0.368738       -10.0339
  24   2.0000      -0.351553        -9.5662
  25   2.0000      -0.341042        -9.2802
  26   2.0000      -0.324448        -8.8287
  27   2.0000      -0.312474        -8.5028
  28   2.0000      -0.310567        -8.4510
  29   2.0000      -0.304389        -8.2828
  30   2.0000      -0.270779        -7.3683
  31   2.0000      -0.231732        -6.3057
  32   0.0000      -0.014831        -0.4036
  33   0.0000       0.073988         2.0133
  34   0.0000       0.087469         2.3802
  35   0.0000       0.107435         2.9235
  36   0.0000       0.120039         3.2664

MULLIKEN ATOMIC CHARGES
-----------------------
   0 C :   -0.481022
   1 C :   -0.223357
   2 C :   -0.323929
   3 C :    0.363466
   4 O :   -0.424618
   5 O :   -0.172486
   6 C :   -0.130086
   7 C :   -0.475339
   8 H :    0.147827
   9 H :    0.149407
  10 H :    0.152660
  11 H :    0.152946
  12 H :    0.144683
  13 H :    0.159828
  14 H :    0.169530
  15 H :    0.168289
  16 H :    0.147812
  17 H :    0.152649
  18 H :    0.173974
  19 H :    0.147767
Sum of atomic charges:    0.0000000

LOEWDIN ATOMIC CHARGES
----------------------
   0 C :   -0.414809
   1 C :   -0.293880
   2 C :   -0.230277
   3 C :    0.352535
   4 O :   -0.431769
   5 O :   -0.600263
   6 C :    0.027886
   7 C :   -0.392403
   8 H :    0.152088
   9 H :    0.153370
  10 H :    0.155242
  11 H :    0.164290
  12 H :    0.153133
  13 H :    0.179890
  14 H :    0.177409
  15 H :    0.188377
  16 H :    0.177666
  17 H :    0.156909
  18 H :    0.165155
  19 H :    0.159450

  Mayer bond orders larger than 0.100000
B(  0-C ,  1-C ) :   0.9124 B(  0-C ,  8-H ) :   0.9701 B(  0-C ,  9-H ) :   0.9781
B(  0-C , 10-H ) :   0.9697 B(  1-C ,  2-C ) :   0.8843 B(  1-C , 11-H ) :   0.9725
B(  1-C , 12-H ) :   0.9633 B(  2-C ,  3-C ) :   0.9635 B(  2-C , 13-H ) :   0.9436
B(  2-C , 14-H ) :   1.0047 B(  3-C ,  4-O ) :   1.8484 B(  3-C ,  5-O ) :   1.0335
B(  5-O ,  6-C ) :   0.8218 B(  6-C ,  7-C ) :   0.9294 B(  6-C , 15-H ) :   0.9688
B(  6-C , 16-H ) :   0.9624 B(  7-C , 17-H ) :   0.9735 B(  7-C , 18-H ) :   0.9720
B(  7-C , 19-H ) :   0.9645

Dispersion correction           -0.005341627
FINAL SINGLE POINT ENERGY      -386.236245728287

DIPOLE MOMENT
-------------

Method             : SCF
Type of density    : Electron Density
Multiplicity       :   1
Irrep              :   0
Energy             :  -386.2426270732366902 Eh
Relativity type    :
Basis              : AO
                                X                 Y                 Z
Electronic contribution:      2.091270532       5.982892435      -0.238489537
Nuclear contribution   :     -2.050236348      -6.416805596       0.966787789
                        -----------------------------------------
Total Dipole Moment    :      0.041034184      -0.433913161       0.728298252
                        -----------------------------------------
Magnitude (a.u.)       :      0.848753662
Magnitude (Debye)      :      2.157360361

Rotational constants in cm-1:             0.100733             0.043539             0.038662
Rotational constants in MHz :          3019.903854          1305.265628          1159.062905

                             ****ORCA TERMINATED NORMALLY****
TOTAL RUN TIME: 0 days 0 hours 0 minutes 32 seconds 12 msec
