                         Program Version 6.0.0  -   RELEASE  -
|  1> ! r2scan-3c def2/J RI DEFGRID2 scfconv6 printgap
|  2> %output
|  3>     printlevel normal
|  4> end
|  5> %cpcm
|  6>     smd true
|  7>     smdsolvent "water"
|  8> end
|  9> * xyz 0 1
| 10> C -2.1421757243 -1.3964193165 -0.45705976
| 11> C -2.0459835267 -0.4414657679 0.7265167613
| 12> C -1.4733485569 0.9192416679 0.3121959134
| 13> C -0.0525336509 0.7938812992 -0.175452118
| 14> O 0.3315315394 1.124614027 -1.2786828123
| 15> O 0.7439952047 0.2904869059 0.7587659652
| 16> C 2.1281582825 0.0807964333 0.4381286635
| 17> C 2.3380253752 -1.2652059407 -0.2389321845
| 18> H -2.549428326 -2.3531981344 -0.1415048833
| 19> H -2.7866633099 -0.9832930242 -1.2295292995
| 20> H -1.1599554857 -1.5669318715 -0.8938654765
| 21> H -1.4082459479 -0.8723624479 1.4993148984
| 22> H -3.0388850087 -0.2853414755 1.1494747193
| 23> H -1.470810339 1.5889008395 1.1731688311
| 24> H -2.0673288784 1.3606645458 -0.4881220388
| 25> H 2.4636360991 0.8946104672 -0.2120763212
| 26> H 2.6419466269 0.1260075421 1.398768166
| 27> H 1.9473243285 -2.0642780725 0.3854664483
| 28> H 1.827307832 -1.2826078122 -1.1994913079
| 29> H 3.398738542 -1.4242654873 -0.4028787374
| 30> *
| 31>
| 32>                          ****END OF INPUT****

CARTESIAN COORDINATES (ANGSTROEM)
---------------------------------
  C     -2.142176   -1.396419   -0.457060
  C     -2.045984   -0.441466    0.726517
  C     -1.473349    0.919242    0.312196
  C     -0.052534    0.793881   -0.175452
  O      0.331532    1.124614   -1.278683
  O      0.743995    0.290487    0.758766
  C      2.128158    0.080796    0.438129
  C      2.338025   -1.265206   -0.238932
  H     -2.549428   -2.353198   -0.141505
  H     -2.786663   -0.983293   -1.229529
  H     -1.159955   -1.566932   -0.893865
  H     -1.408246   -0.872362    1.499315
  H     -3.038885   -0.285341    1.149475
  H     -1.470810    1.588901    1.173169
  H     -2.067329    1.360665   -0.488122
  H      2.463636    0.894610   -0.212076
  H      2.641947    0.126008    1.398768
  H      1.947324   -2.064278    0.385466
  H      1.827308   -1.282608   -1.199491
  H      3.398739   -1.424265   -0.402879

 Total Charge           Charge          ....    0
 Multiplicity           Mult            ....    1
 Number of Electrons    NEL             ....   64
 Basis Dimension        Dim             ....  222

ORBITAL ENERGIES
----------------

  NO   OCC          E(Eh)            E(eV)
   0   2.0000     -19.001581      -517.0593
   1   2.0000     -18.943106      -515.4681
   2   2.0000     -10.161946      -276.5206
   3   2.0000     -10.083421      -274.3838
   4   2.0000     -10.035173      -273.0709
   5   2.0000     -10.028178      -272.8806
   6   2.0000     -10.018239      -272.6101
   7   2.0000     -10.011683      -272.4318
   8   2.0000      -1.078566       -29.3493
   9   2.0000      -0.988201       -26.8903
  10   2.0000      -0.770721       -20.9724
  11   2.0000      -0.730823       -19.8867
  12   2.0000      -0.671594       -18.2750
  13   2.0000      -0.618572       -16.8322
  14   2.0000      -0.564795       -15.3689
  15   2.0000      -0.518838       -14.1183
  16   2.0000      -0.469412       -12.7734
  17   2.0000      -0.461489       -12.5578
  18   2.0000      -0.443629       -12.0718
  19   2.0000      -0.416400       -11.3308
  20   2.0000      -0.404800       -11.0152
  21   2.0000      -0.390857       -10.6358
  22   2.0000      -0.368304       -10.0221
  23   2.0000      -0.363049        -9.8791
  24   2.0000      -0.349106        -9.4997
  25   2.0000      -0.336272        -9.1504
  26   2.0000      -0.317969        -8.6524
  27   2.0000      -0.308298        -8.3892
  28   2.0000      -0.304146        -8.2762
  29   2.0000      -0.300039        -8.1645
  30   2.0000      -0.277299        -7.5457
  31   2.0000      -0.247433        -6.7330
  32   0.0000      -0.023264        -0.6330
  33   0.0000       0.077931         2.1206
  34   0.0000       0.095384         2.5955
  35   0.0000       0.114845         3.1251
  36   0.0000       0.129292         3.5182

MULLIKEN ATOMIC CHARGES
-----------------------
   0 C :   -0.528063
   1 C :   -0.217950
   2 C :   -0.343790
   3 C :    0.400700
   4 O :   -0.509991
   5 O :   -0.189348
   6 C :   -0.138598
   7 C :   -0.496552
   8 H :    0.161924
   9 H :    0.162840
  10 H :    0.161293
  11 H :    0.155851
  12 H :    0.162093
  13 H :    0.189171
  14 H :    0.178742
  15 H :    0.171201
  16 H :    0.173833
  17 H :    0.166663
  18 H :    0.169328
  19 H :    0.170653
Sum of atomic charges:   -0.0000000

LOEWDIN ATOMIC CHARGES
----------------------
   0 C :   -0.422956
   1 C :   -0.290554
   2 C :   -0.228557
   3 C :    0.361582
   4 O :   -0.492825
   5 O :   -0.601195
   6 C :    0.032444
   7 C :   -0.394731
   8 H :    0.156603
   9 H :    0.156137
  10 H :    0.155939
  11 H :    0.164946
  12 H :    0.160075
  13 H :    0.191299
  14 H :    0.181200
  15 H :    0.189248
  16 H :    0.189009
  17 H :    0.162089
  18 H :    0.162483
  19 H :    0.167765

  Mayer bond orders larger than 0.100000
B(  0-C ,  1-C ) :   0.8982 B(  0-C ,  8-H ) :   0.9660 B(  0-C ,  9-H ) :   0.9769
B(  0-C , 10-H ) :   0.9681 B(  1-C ,  2-C ) :   0.8753 B(  1-C , 11-H ) :   0.9722
B(  1-C , 12-H ) :   0.9602 B(  2-C ,  3-C ) :   0.9626 B(  2-C , 13-H ) :   0.9339
B(  2-C , 14-H ) :   1.0002 B(  3-C ,  4-O ) :   1.7767 B(  3-C ,  5-O ) :   1.0619
B(  5-O ,  6-C ) :   0.8035 B(  6-C ,  7-C ) :   0.9306 B(  6-C , 15-H ) :   0.9652
B(  6-C , 16-H ) :   0.9531 B(  7-C , 17-H ) :   0.9694 B(  7-C , 18-H ) :   0.9692
B(  7-C , 19-H ) :   0.9597

Dispersion correction           -0.005341627
FINAL SINGLE POINT ENERGY      -386.241479490754

DIPOLE MOMENT
-------------

Method             : SCF
Type of density    : Electron Density
Multiplicity       :   1
Irrep              :   0
Energy             :  -386.2478608357037615 Eh
Relativity type    :
Basis              : AO
                                X                 Y                 Z
Electronic contribution:      2.072713392       5.846360634       0.110651978
Nuclear contribution   :     -2.050236348      -6.416805596       0.966787789
                        -----------------------------------------
Total Dipole Moment    :      0.022477044      -0.570444962       1.077439766
                        -----------------------------------------
Magnitude (a.u.)       :      1.219339626
Magnitude (Debye)      :      3.099315022

Rotational constants in cm-1:             0.100733             0.043539             0.038662
Rotational constants in MHz :          3019.903854          1305.265628          1159.062905

                             ****ORCA TERMINATED NORMALLY****
TOTAL RUN TIME: 0 days 0 hours 0 minutes 38 seconds 811 msec
