                         Program Version 6.0.0  -   RELEASE  -
|  1> ! r2scan-3c def2/J RI DEFGRID2 scfconv6 printgap
|  2> %output
|  3>     printlevel normal
|  4> end
|  5> * xyz 0 1
|  6> C -3.2703631143 -1.1618681049 0.3271893522
|  7> C -1.7924094102 -0.9276619414 0.0385450154
|  8> C -1.4474298362 0.558705048 0.1197341193
|  9> C -0.0031127068 0.8726347502 -0.1693311737
| 10> O 0.3857116625 1.9424286087 -0.5988708637
| 11> O 0.8145535271 -0.1294570556 0.1098375169
| 12> C 2.2202050768 0.0761747777 -0.1102959153
| 13> C 2.9509768467 -1.1941751787 0.2784354545
| 14> H -3.5046038503 -2.2204288258 0.257085002
| 15> H -3.5234586261 -0.8184020356 1.3270570863
| 16> H -3.8889962269 -0.6244864229 -0.3874180825
| 17> H -1.5500305779 -1.2991007757 -0.9585769117
| 18> H -1.1839757386 -1.4784033584 0.7559985752
| 19> H -1.6533413777 0.9304732703 1.1273201974
| 20> H -2.0556905851 1.1437664698 -0.5722694225
| 21> H 2.3712903042 0.3267618876 -1.1654434123
| 22> H 2.5429062486 0.9325910865 0.4909671512
| 23> H 4.014823543 -1.0608268651 0.1127691316
| 24> H 2.7764381173 -1.4183192613 1.3264519391
| 25> H 2.5956431521 -2.0261176578 -0.3220860565
| 26> *
| 27>
| 28>                          ****END OF INPUT****

CARTESIAN COORDINATES (ANGSTROEM)
---------------------------------
  C     -3.270363   -1.161868    0.327189
  C     -1.792409   -0.927662    0.038545
  C     -1.447430    0.558705    0.119734
  C     -0.003113    0.872635   -0.169331
  O      0.385712    1.942429   -0.598871
  O      0.814554   -0.129457    0.109838
  C      2.220205    0.076175   -0.110296
  C      2.950977   -1.194175    0.278435
  H     -3.504604   -2.220429    0.257085
  H     -3.523459   -0.818402    1.327057
  H     -3.888996   -0.624486   -0.387418
  H     -1.550031   -1.299101   -0.958577
  H     -1.183976   -1.478403    0.755999
  H     -1.653341    0.930473    1.127320
  H     -2.055691    1.143766   -0.572269
  H      2.371290    0.326762   -1.165443
  H      2.542906    0.932591    0.490967
  H      4.014824   -1.060827    0.112769
  H      2.776438   -1.418319    1.326452
  H      2.595643   -2.026118   -0.322086

 Total Charge           Charge          ....    0
 Multiplicity           Mult            ....    1
 Number of Electrons    NEL             ....   64
 Basis Dimension        Dim             ....  222

ORBITAL ENERGIES
----------------

  NO   OCC          E(Eh)            E(eV)
   0   2.0000     -18.997431      -516.9464
   1   2.0000     -18.923848      -514.9441
   2   2.0000     -10.150198      -276.2009
   3   2.0000     -10.092134      -274.6209
   4   2.0000     -10.042015      -273.2571
   5   2.0000     -10.033285      -273.0196
   6   2.0000     -10.032745      -273.0049
   7   2.0000     -10.021890      -272.7095
   8   2.0000      -1.072475       -29.1835
   9   2.0000      -0.971145       -26.4262
  10   2.0000      -0.775543       -21.1036
  11   2.0000      -0.742215       -20.1967
  12   2.0000      -0.680784       -18.5251
  13   2.0000      -0.613405       -16.6916
  14   2.0000      -0.570121       -15.5138
  15   2.0000      -0.535614       -14.5748
  16   2.0000      -0.469374       -12.7723
  17   2.0000      -0.459542       -12.5048
  18   2.0000      -0.443827       -12.0772
  19   2.0000      -0.428173       -11.6512
  20   2.0000      -0.397921       -10.8280
  21   2.0000      -0.385885       -10.5005
  22   2.0000      -0.376350       -10.2410
  23   2.0000      -0.361805        -9.8452
  24   2.0000      -0.358203        -9.7472
  25   2.0000      -0.337417        -9.1816
  26   2.0000      -0.326142        -8.8748
  27   2.0000      -0.321839        -8.7577
  28   2.0000      -0.310627        -8.4526
  29   2.0000      -0.303020        -8.2456
  30   2.0000      -0.270665        -7.3652
  31   2.0000      -0.229392        -6.2421
  32   0.0000      -0.012305        -0.3348
  33   0.0000       0.072499         1.9728
  34   0.0000       0.094884         2.5819
  35   0.0000       0.104946         2.8557
  36   0.0000       0.118513         3.2249

MULLIKEN ATOMIC CHARGES
-----------------------
   0 C :   -0.466575
   1 C :   -0.234853
   2 C :   -0.337144
   3 C :    0.353320
   4 O :   -0.417312
   5 O :   -0.142288
   6 C :   -0.145779
   7 C :   -0.444884
   8 H :    0.148873
   9 H :    0.141854
  10 H :    0.143004
  11 H :    0.142728
  12 H :    0.153688
  13 H :    0.169721
  14 H :    0.169004
  15 H :    0.157301
  16 H :    0.157158
  17 H :    0.147829
  18 H :    0.152025
  19 H :    0.152331
Sum of atomic charges:   -0.0000000

LOEWDIN ATOMIC CHARGES
----------------------
   0 C :   -0.421947
   1 C :   -0.296905
   2 C :   -0.229158
   3 C :    0.358663
   4 O :   -0.429887
   5 O :   -0.606188
   6 C :    0.036039
   7 C :   -0.387029
   8 H :    0.152135
   9 H :    0.150412
  10 H :    0.150767
  11 H :    0.156854
  12 H :    0.164704
  13 H :    0.182643
  14 H :    0.180907
  15 H :    0.179956
  16 H :    0.179754
  17 H :    0.159842
  18 H :    0.159042
  19 H :    0.159394

  Mayer bond orders larger than 0.100000
B(  0-C ,  1-C ) :   0.8892 B(  0-C ,  8-H ) :   0.9743 B(  0-C ,  9-H ) :   0.9851
B(  0-C , 10-H ) :   0.9801 B(  1-C ,  2-C ) :   0.9251 B(  1-C , 11-H ) :   0.9661
B(  1-C , 12-H ) :   0.9624 B(  2-C ,  3-C ) :   1.0074 B(  2-C , 13-H ) :   0.9354
B(  2-C , 14-H ) :   0.9809 B(  3-C ,  4-O ) :   1.8318 B(  3-C ,  5-O ) :   1.0806
B(  5-O ,  6-C ) :   0.8067 B(  6-C ,  7-C ) :   0.9418 B(  6-C , 15-H ) :   0.9524
B(  6-C , 16-H ) :   0.9542 B(  7-C , 17-H ) :   0.9682 B(  7-C , 18-H ) :   0.9724
B(  7-C , 19-H ) :   0.9721

Dispersion correction           -0.004899473
FINAL SINGLE POINT ENERGY      -386.235123398300

DIPOLE MOMENT
-------------

Method             : SCF
Type of density    : Electron Density
Multiplicity       :   1
Irrep              :   0
Energy             :  -386.2418790294706810 Eh
Relativity type    :
Basis              : AO
                                X                 Y                 Z
Electronic contribution:      2.950673246       6.224648322      -1.550333460
Nuclear contribution   :     -2.852050087      -7.114903903       1.861440747
                        -----------------------------------------
Total Dipole Moment    :      0.098623158      -0.890255581       0.311107287
                        -----------------------------------------
Magnitude (a.u.)       :      0.948192634
Magnitude (Debye)      :      2.410114140

Rotational constants in cm-1:             0.110860             0.035426             0.027711
Rotational constants in MHz :          3323.506427          1062.047118           830.753975

                             ****ORCA TERMINATED NORMALLY****
TOTAL RUN TIME: 0 days 0 hours 0 minutes 29 seconds 911 msec
