                         Program Version 6.0.0  -   RELEASE  -
|  1> ! r2scan-3c def2/J RI DEFGRID2 scfconv6 printgap
|  2> %output
|  3>     printlevel normal
|  4> end
|  5> %cpcm
|  6>     smd true
|  7>     smdsolvent "water"
|  8> end
|  9> * xyz 0 1
| 10> C -3.2703631143 -1.1618681049 0.3271893522
| 11> C -1.7924094102 -0.9276619414 0.0385450154
| 12> C -1.4474298362 0.558705048 0.1197341193
| 13> C -0.0031127068 0.8726347502 -0.1693311737
| 14> O 0.3857116625 1.9424286087 -0.5988708637
| 15> O 0.8145535271 -0.1294570556 0.1098375169
| 16> C 2.2202050768 0.0761747777 -0.1102959153
| 17> C 2.9509768467 -1.1941751787 0.2784354545
| 18> H -3.5046038503 -2.2204288258 0.257085002
| 19> H -3.5234586261 -0.8184020356 1.3270570863
| 20> H -3.8889962269 -0.6244864229 -0.3874180825
| 21> H -1.5500305779 -1.2991007757 -0.9585769117
| 22> H -1.1839757386 -1.4784033584 0.7559985752
| 23> H -1.6533413777 0.9304732703 1.1273201974
| 24> H -2.0556905851 1.1437664698 -0.5722694225
| 25> H 2.3712903042 0.3267618876 -1.1654434123
| 26> H 2.5429062486 0.9325910865 0.4909671512
| 27> H 4.014823543 -1.0608268651 0.1127691316
| 28> H 2.7764381173 -1.4183192613 1.3264519391
| 29> H 2.5956431521 -2.0261176578 -0.3220860565
| 30> *
| 31>
| 32>                          ****END OF INPUT****

CARTESIAN COORDINATES (ANGSTROEM)
---------------------------------
  C     -3.270363   -1.161868    0.327189
  C     -1.792409   -0.927662    0.038545
  C     -1.447430    0.558705    0.119734
  C     -0.003113    0.872635   -0.169331
  O      0.385712    1.942429   -0.598871
  O      0.814554   -0.129457    0.109838
  C      2.220205    0.076175   -0.110296
  C      2.950977   -1.194175    0.278435
  H     -3.504604   -2.220429    0.257085
  H     -3.523459   -0.818402    1.327057
  H     -3.888996   -0.624486   -0.387418
  H     -1.550031   -1.299101   -0.958577
  H     -1.183976   -1.478403    0.755999
  H     -1.653341    0.930473    1.127320
  H     -2.055691    1.143766   -0.572269
  H      2.371290    0.326762   -1.165443
  H      2.542906    0.932591    0.490967
  H      4.014824   -1.060827    0.112769
  H      2.776438   -1.418319    1.326452
  H      2.595643   -2.026118   -0.322086

 Total Charge           Charge          ....    0
 Multiplicity           Mult            ....    1
 Number of Electrons    NEL             ....   64
 Basis Dimension        Dim             ....  222

ORBITAL ENERGIES
----------------

  NO   OCC          E(Eh)            E(eV)
   0   2.0000     -19.003170      -517.1025
   1   2.0000     -18.941391      -515.4215
   2   2.0000     -10.161912      -276.5197
   3   2.0000     -10.084424      -274.4111
   4   2.0000     -10.035980      -273.0929
   5   2.0000     -10.024713      -272.7863
   6   2.0000     -10.018878      -272.6275
   7   2.0000     -10.010486      -272.3992
   8   2.0000      -1.080080       -29.3905
   9   2.0000      -0.986442       -26.8424
  10   2.0000      -0.769658       -20.9435
  11   2.0000      -0.733486       -19.9592
  12   2.0000      -0.673668       -18.3314
  13   2.0000      -0.606297       -16.4982
  14   2.0000      -0.562836       -15.3155
  15   2.0000      -0.533636       -14.5210
  16   2.0000      -0.468188       -12.7400
  17   2.0000      -0.458937       -12.4883
  18   2.0000      -0.448561       -12.2060
  19   2.0000      -0.430616       -11.7177
  20   2.0000      -0.393810       -10.7161
  21   2.0000      -0.380263       -10.3475
  22   2.0000      -0.367111        -9.9896
  23   2.0000      -0.353787        -9.6270
  24   2.0000      -0.348877        -9.4934
  25   2.0000      -0.331625        -9.0240
  26   2.0000      -0.323278        -8.7968
  27   2.0000      -0.319529        -8.6948
  28   2.0000      -0.305209        -8.3052
  29   2.0000      -0.294927        -8.0254
  30   2.0000      -0.277736        -7.5576
  31   2.0000      -0.246827        -6.7165
  32   0.0000      -0.021068        -0.5733
  33   0.0000       0.077346         2.1047
  34   0.0000       0.104294         2.8380
  35   0.0000       0.113564         3.0902
  36   0.0000       0.126053         3.4301

MULLIKEN ATOMIC CHARGES
-----------------------
   0 C :   -0.514658
   1 C :   -0.238395
   2 C :   -0.351596
   3 C :    0.405286
   4 O :   -0.510612
   5 O :   -0.156995
   6 C :   -0.149498
   7 C :   -0.493607
   8 H :    0.159571
   9 H :    0.156491
  10 H :    0.156272
  11 H :    0.157408
  12 H :    0.156408
  13 H :    0.200283
  14 H :    0.180914
  15 H :    0.171727
  16 H :    0.171331
  17 H :    0.169327
  18 H :    0.165347
  19 H :    0.164994
Sum of atomic charges:   -0.0000000

LOEWDIN ATOMIC CHARGES
----------------------
   0 C :   -0.427520
   1 C :   -0.295296
   2 C :   -0.227280
   3 C :    0.370113
   4 O :   -0.496128
   5 O :   -0.605457
   6 C :    0.038062
   7 C :   -0.389720
   8 H :    0.154980
   9 H :    0.154396
  10 H :    0.154343
  11 H :    0.160411
  12 H :    0.164978
  13 H :    0.195030
  14 H :    0.185922
  15 H :    0.184777
  16 H :    0.184509
  17 H :    0.168479
  18 H :    0.162634
  19 H :    0.162766

  Mayer bond orders larger than 0.100000
B(  0-C ,  1-C ) :   0.8836 B(  0-C ,  8-H ) :   0.9709 B(  0-C ,  9-H ) :   0.9827
B(  0-C , 10-H ) :   0.9781 B(  1-C ,  2-C ) :   0.9141 B(  1-C , 11-H ) :   0.9671
B(  1-C , 12-H ) :   0.9608 B(  2-C ,  3-C ) :   1.0086 B(  2-C , 13-H ) :   0.9177
B(  2-C , 14-H ) :   0.9792 B(  3-C ,  4-O ) :   1.7584 B(  3-C ,  5-O ) :   1.1141
B(  5-O ,  6-C ) :   0.7916 B(  6-C ,  7-C ) :   0.9449 B(  6-C , 15-H ) :   0.9448
B(  6-C , 16-H ) :   0.9466 B(  7-C , 17-H ) :   0.9617 B(  7-C , 18-H ) :   0.9702
B(  7-C , 19-H ) :   0.9700

Dispersion correction           -0.004899473
FINAL SINGLE POINT ENERGY      -386.241128995437

DIPOLE MOMENT
-------------

Method             : SCF
Type of density    : Electron Density
Multiplicity       :   1
Irrep              :   0
Energy             :  -386.2478846266076289 Eh
Relativity type    :
Basis              : AO
                                X                 Y                 Z
Electronic contribution:      2.932579414       5.922844476      -1.421139176
Nuclear contribution   :     -2.852050087      -7.114903903       1.861440747
                        -----------------------------------------
Total Dipole Moment    :      0.080529326      -1.192059427       0.440301572
                        -----------------------------------------
Magnitude (a.u.)       :      1.273324830
Magnitude (Debye)      :      3.236534507

Rotational constants in cm-1:             0.110860             0.035426             0.027711
Rotational constants in MHz :          3323.506427          1062.047118           830.753975

                             ****ORCA TERMINATED NORMALLY****
TOTAL RUN TIME: 0 days 0 hours 0 minutes 36 seconds 999 msec
