                         Program Version 6.0.0  -   RELEASE  -
|  1> ! pbe def2-sv(p) def2/J RI DEFGRID1 loosescf d4 GCP(DFT/SV(P)) printgap
|  2> %output
|  3>     printlevel normal
|  4> end
|  5> * xyz 0 1
|  6> C -3.5379741269 0.1032301667 -1.841781822
|  7> C -3.1763448977 -0.4274130362 -0.4541947874
|  8> H -3.6565495344 -1.3955728893 -0.2859202244
|  9> C -1.6787626954 -0.5924774826 -0.2797754538
| 10> C -1.150942314 -1.8619331022 0.0280223304
| 11> C 0.193113565 -2.0455370018 0.1830552866
| 12> C 1.0922497687 -0.9659751227 0.0440739391
| 13> C 2.4791698953 -1.1195820738 0.1980468641
| 14> C 3.3328654273 -0.0467014178 0.0607106415
| 15> C 2.8090513868 1.2270102321 -0.2389594887
| 16> C 1.4610222263 1.3960825814 -0.3927548881
| 17> C 0.5654347155 0.3173346347 -0.2586539357
| 18> C -0.826328391 0.4729616427 -0.4120560449
| 19> O 4.6623837344 -0.3075012802 0.2307490476
| 20> C 5.5917150987 0.752022368 0.1021124671
| 21> C -3.6378181875 0.4890878252 0.6577512242
| 22> O -4.0503500661 0.0890413026 1.7279506466
| 23> O -3.51593033 1.7737570099 0.3809131343
| 24> H -3.1089169519 1.0871731909 -2.001740787
| 25> H -3.1531452452 -0.5757012846 -2.5976875653
| 26> H -4.6178461982 0.1718230099 -1.9462556224
| 27> H -1.8269422243 -2.6967090824 0.1404257582
| 28> H 0.5883254846 -3.02294325 0.4163011452
| 29> H 2.893404591 -2.0890368392 0.4282493412
| 30> H 3.4667336068 2.0739837182 -0.3487361627
| 31> H 1.065657109 2.37420674 -0.6229525259
| 32> H -1.2111985894 1.4575803954 -0.6327783595
| 33> H 6.5646920344 0.2988266601 0.2782773315
| 34> H 5.4107257209 1.5308835003 0.8473655965
| 35> H 5.5652572043 1.1828620214 -0.9020713493
| 36> H -3.788803389 2.3451371408 1.1248256992
| 37> *
| 38>
| 39>                          ****END OF INPUT****

CARTESIAN COORDINATES (ANGSTROEM)
---------------------------------
  C     -3.537974    0.103230   -1.841782
  C     -3.176345   -0.427413   -0.454195
  H     -3.656550   -1.395573   -0.285920
  C     -1.678763   -0.592477   -0.279775
  C     -1.150942   -1.861933    0.028022
  C      0.193114   -2.045537    0.183055
  C      1.092250   -0.965975    0.044074
  C      2.479170   -1.119582    0.198047
  C      3.332865   -0.046701    0.060711
  C      2.809051    1.227010   -0.238959
  C      1.461022    1.396083   -0.392755
  C      0.565435    0.317335   -0.258654
  C     -0.826328    0.472962   -0.412056
  O      4.662384   -0.307501    0.230749
  C      5.591715    0.752022    0.102112
  C     -3.637818    0.489088    0.657751
  O     -4.050350    0.089041    1.727951
  O     -3.515930    1.773757    0.380913
  H     -3.108917    1.087173   -2.001741
  H     -3.153145   -0.575701   -2.597688
  H     -4.617846    0.171823   -1.946256
  H     -1.826942   -2.696709    0.140426
  H      0.588325   -3.022943    0.416301
  H      2.893405   -2.089037    0.428249
  H      3.466734    2.073984   -0.348736
  H      1.065657    2.374207   -0.622953
  H     -1.211199    1.457580   -0.632778
  H      6.564692    0.298827    0.278277
  H      5.410726    1.530884    0.847366
  H      5.565257    1.182862   -0.902071
  H     -3.788803    2.345137    1.124826

 Total Charge           Charge          ....    0
 Multiplicity           Mult            ....    1
 Number of Electrons    NEL             ....  122
 Basis Dimension        Dim             ....  266

ORBITAL ENERGIES
----------------

  NO   OCC          E(Eh)            E(eV)
   0   2.0000     -18.803143      -511.6595
   1   2.0000     -18.789989      -511.3016
   2   2.0000     -18.733552      -509.7659
   3   2.0000     -10.009333      -272.3678
   4   2.0000      -9.952210      -270.8134
   5   2.0000      -9.943629      -270.5799
   6   2.0000      -9.911690      -269.7108
   7   2.0000      -9.904167      -269.5061
   8   2.0000      -9.902024      -269.4478
   9   2.0000      -9.898920      -269.3633
  10   2.0000      -9.897407      -269.3221
  11   2.0000      -9.896300      -269.2920
  12   2.0000      -9.891930      -269.1731
  13   2.0000      -9.890522      -269.1348
  14   2.0000      -9.890070      -269.1225
  15   2.0000      -9.885500      -268.9981
  16   2.0000      -9.883832      -268.9527
  17   2.0000      -1.010917       -27.5084
  18   2.0000      -0.969609       -26.3844
  19   2.0000      -0.907406       -24.6918
  20   2.0000      -0.796041       -21.6614
  21   2.0000      -0.757557       -20.6142
  22   2.0000      -0.719299       -19.5731
  23   2.0000      -0.697980       -18.9930
  24   2.0000      -0.665576       -18.1112
  25   2.0000      -0.658271       -17.9125
  26   2.0000      -0.618974       -16.8431
  27   2.0000      -0.602681       -16.3998
  28   2.0000      -0.576203       -15.6793
  29   2.0000      -0.553735       -15.0679
  30   2.0000      -0.540212       -14.6999
  31   2.0000      -0.524738       -14.2789
  32   2.0000      -0.484454       -13.1827
  33   2.0000      -0.463096       -12.6015
  34   2.0000      -0.461749       -12.5648
  35   2.0000      -0.433202       -11.7880
  36   2.0000      -0.423593       -11.5265
  37   2.0000      -0.420093       -11.4313
  38   2.0000      -0.410370       -11.1667
  39   2.0000      -0.407159       -11.0793
  40   2.0000      -0.397572       -10.8185
  41   2.0000      -0.393590       -10.7101
  42   2.0000      -0.382280       -10.4024
  43   2.0000      -0.372494       -10.1361
  44   2.0000      -0.364182        -9.9099
  45   2.0000      -0.357627        -9.7315
  46   2.0000      -0.354884        -9.6569
  47   2.0000      -0.346711        -9.4345
  48   2.0000      -0.336450        -9.1553
  49   2.0000      -0.328180        -8.9302
  50   2.0000      -0.317766        -8.6469
  51   2.0000      -0.312918        -8.5149
  52   2.0000      -0.299846        -8.1592
  53   2.0000      -0.294486        -8.0134
  54   2.0000      -0.280334        -7.6283
  55   2.0000      -0.272144        -7.4054
  56   2.0000      -0.268872        -7.3164
  57   2.0000      -0.249543        -6.7904
  58   2.0000      -0.216468        -5.8904
  59   2.0000      -0.213155        -5.8002
  60   2.0000      -0.180594        -4.9142
  61   0.0000      -0.068792        -1.8719
  62   0.0000      -0.038096        -1.0367
  63   0.0000      -0.009273        -0.2523
  64   0.0000      -0.005719        -0.1556
  65   0.0000       0.021854         0.5947

MULLIKEN ATOMIC CHARGES
-----------------------
   0 C :   -0.224646
   1 C :   -0.121107
   2 H :    0.078911
   3 C :    0.109744
   4 C :   -0.095349
   5 C :   -0.125930
   6 C :    0.174627
   7 C :   -0.225277
   8 C :    0.299202
   9 C :   -0.172983
  10 C :   -0.137066
  11 C :    0.185506
  12 C :   -0.222371
  13 O :   -0.269773
  14 C :   -0.116249
  15 C :    0.110851
  16 O :   -0.188133
  17 O :   -0.288107
  18 H :    0.120440
  19 H :    0.107802
  20 H :    0.105646
  21 H :    0.041540
  22 H :    0.036609
  23 H :    0.030981
  24 H :    0.039222
  25 H :    0.038148
  26 H :    0.038681
  27 H :    0.127476
  28 H :    0.112298
  29 H :    0.111945
  30 H :    0.317363
Sum of atomic charges:    0.0000000

LOEWDIN ATOMIC CHARGES
----------------------
   0 C :   -0.321356
   1 C :   -0.149526
   2 H :    0.135927
   3 C :   -0.035617
   4 C :   -0.116738
   5 C :   -0.111881
   6 C :   -0.020187
   7 C :   -0.138724
   8 C :    0.029692
   9 C :   -0.164146
  10 C :   -0.103856
  11 C :   -0.034616
  12 C :   -0.108834
  13 O :   -0.092686
  14 C :   -0.202796
  15 C :    0.033838
  16 O :   -0.171902
  17 O :   -0.196339
  18 H :    0.124040
  19 H :    0.125299
  20 H :    0.122133
  21 H :    0.124779
  22 H :    0.124775
  23 H :    0.130237
  24 H :    0.127467
  25 H :    0.124505
  26 H :    0.123046
  27 H :    0.123647
  28 H :    0.109893
  29 H :    0.109742
  30 H :    0.300183

  Mayer bond orders larger than 0.100000
B(  0-C ,  1-C ) :   1.0903 B(  0-C , 18-H ) :   0.9367 B(  0-C , 19-H ) :   0.9463
B(  0-C , 20-H ) :   0.9503 B(  1-C ,  2-H ) :   0.8748 B(  1-C ,  3-C ) :   0.9953
B(  1-C , 15-C ) :   0.9433 B(  3-C ,  4-C ) :   1.2790 B(  3-C , 12-C ) :   1.4254
B(  4-C ,  5-C ) :   1.4550 B(  4-C , 21-H ) :   0.9578 B(  5-C ,  6-C ) :   1.2240
B(  5-C , 22-H ) :   0.9657 B(  6-C ,  7-C ) :   1.2274 B(  6-C , 11-C ) :   1.2376
B(  7-C ,  8-C ) :   1.3848 B(  7-C , 10-C ) :   0.1008 B(  7-C , 23-H ) :   0.9726
B(  8-C ,  9-C ) :   1.1938 B(  8-C , 13-O ) :   1.1352 B(  9-C , 10-C ) :   1.4267
B(  9-C , 24-H ) :   0.9597 B( 10-C , 11-C ) :   1.2309 B( 10-C , 25-H ) :   0.9640
B( 11-C , 12-C ) :   1.2220 B( 12-C , 26-H ) :   0.9534 B( 13-O , 14-C ) :   0.9877
B( 14-C , 27-H ) :   0.9588 B( 14-C , 28-H ) :   0.9420 B( 14-C , 29-H ) :   0.9420
B( 15-C , 16-O ) :   2.1318 B( 15-C , 17-O ) :   1.2489 B( 17-O , 30-H ) :   0.8174

Dispersion correction           -0.038963254
FINAL SINGLE POINT ENERGY      -765.990402388858

DIPOLE MOMENT
-------------

Method             : SCF
Type of density    : Electron Density
Multiplicity       :   1
Irrep              :   0
Energy             :  -766.0848227009132643 Eh
Relativity type    :
Basis              : AO
                                X                 Y                 Z
Electronic contribution:     -3.180457172      -1.662494436       5.146875717
Nuclear contribution   :      3.889229583       2.595982709      -5.690717360
                        -----------------------------------------
Total Dipole Moment    :      0.708772410       0.933488273      -0.543841643
                        -----------------------------------------
Magnitude (a.u.)       :      1.292100003
Magnitude (Debye)      :      3.284257204

Rotational constants in cm-1:             0.041827             0.007191             0.006752
Rotational constants in MHz :          1253.938922           215.581671           202.413418

                             ****ORCA TERMINATED NORMALLY****
TOTAL RUN TIME: 0 days 0 hours 0 minutes 26 seconds 324 msec
