                         Program Version 6.0.0  -   RELEASE  -
|  1> ! r2scan-3c def2/J RI DEFGRID2 scfconv6 printgap
|  2> %output
|  3>     printlevel normal
|  4> end
|  5> * xyz 0 1
|  6> C -3.9254643711 0.2009574142 -0.2226854099
|  7> C -2.6962445019 -0.3687319915 0.4750316942
|  8> C -1.404702762 0.1393814069 -0.1605981792
|  9> C -0.1692100578 -0.4215574747 0.5393365616
| 10> C 1.108226634 -0.0114155139 -0.1450473415
| 11> O 1.1988411763 0.3670253562 -1.2934539779
| 12> O 2.1477449861 -0.1347257747 0.6749236779
| 13> C 3.4579686773 0.1767094468 0.1891634252
| 14> H -3.9289186491 1.2867409198 -0.1618201128
| 15> H -3.9312776029 -0.0813639513 -1.2729296889
| 16> H -4.8349972822 -0.1731283287 0.2401231018
| 17> H -2.7143115807 -0.0867874107 1.5295536598
| 18> H -2.7212054774 -1.458770543 0.4201565591
| 19> H -1.378352789 1.2301608458 -0.1174453201
| 20> H -1.3719738145 -0.1433766653 -1.2146690076
| 21> H -0.1996764935 -1.5141806972 0.5275702617
| 22> H -0.1195705353 -0.1051207241 1.5814329239
| 23> H 3.4310284228 0.30303154 -0.893674989
| 24> H 4.1070077001 -0.6501878956 0.4676588492
| 25> H 3.7899092018 1.0976737011 0.6663202475
| 26> *
| 27>
| 28>                          ****END OF INPUT****

CARTESIAN COORDINATES (ANGSTROEM)
---------------------------------
  C     -3.925464    0.200957   -0.222685
  C     -2.696245   -0.368732    0.475032
  C     -1.404703    0.139381   -0.160598
  C     -0.169210   -0.421557    0.539337
  C      1.108227   -0.011416   -0.145047
  O      1.198841    0.367025   -1.293454
  O      2.147745   -0.134726    0.674924
  C      3.457969    0.176709    0.189163
  H     -3.928919    1.286741   -0.161820
  H     -3.931278   -0.081364   -1.272930
  H     -4.834997   -0.173128    0.240123
  H     -2.714312   -0.086787    1.529554
  H     -2.721205   -1.458771    0.420157
  H     -1.378353    1.230161   -0.117445
  H     -1.371974   -0.143377   -1.214669
  H     -0.199676   -1.514181    0.527570
  H     -0.119571   -0.105121    1.581433
  H      3.431028    0.303032   -0.893675
  H      4.107008   -0.650188    0.467659
  H      3.789909    1.097674    0.666320

 Total Charge           Charge          ....    0
 Multiplicity           Mult            ....    1
 Number of Electrons    NEL             ....   64
 Basis Dimension        Dim             ....  222

ORBITAL ENERGIES
----------------

  NO   OCC          E(Eh)            E(eV)
   0   2.0000     -18.998086      -516.9642
   1   2.0000     -18.929709      -515.1036
   2   2.0000     -10.153613      -276.2939
   3   2.0000     -10.084622      -274.4165
   4   2.0000     -10.042666      -273.2748
   5   2.0000     -10.027478      -272.8616
   6   2.0000     -10.027339      -272.8578
   7   2.0000     -10.016368      -272.5592
   8   2.0000      -1.071632       -29.1606
   9   2.0000      -0.977200       -26.5910
  10   2.0000      -0.775943       -21.1145
  11   2.0000      -0.728986       -19.8367
  12   2.0000      -0.686377       -18.6773
  13   2.0000      -0.614602       -16.7242
  14   2.0000      -0.552346       -15.0301
  15   2.0000      -0.527488       -14.3537
  16   2.0000      -0.467307       -12.7161
  17   2.0000      -0.463454       -12.6112
  18   2.0000      -0.442553       -12.0425
  19   2.0000      -0.437293       -11.8993
  20   2.0000      -0.403018       -10.9667
  21   2.0000      -0.395974       -10.7750
  22   2.0000      -0.386424       -10.5151
  23   2.0000      -0.359263        -9.7760
  24   2.0000      -0.350420        -9.5354
  25   2.0000      -0.324266        -8.8237
  26   2.0000      -0.318921        -8.6783
  27   2.0000      -0.308062        -8.3828
  28   2.0000      -0.299096        -8.1388
  29   2.0000      -0.297430        -8.0935
  30   2.0000      -0.272128        -7.4050
  31   2.0000      -0.239089        -6.5059
  32   0.0000      -0.012929        -0.3518
  33   0.0000       0.070421         1.9162
  34   0.0000       0.090462         2.4616
  35   0.0000       0.102564         2.7909
  36   0.0000       0.119309         3.2466

MULLIKEN ATOMIC CHARGES
-----------------------
   0 C :   -0.467309
   1 C :   -0.222213
   2 C :   -0.287162
   3 C :   -0.299987
   4 C :    0.389010
   5 O :   -0.435222
   6 O :   -0.192086
   7 C :   -0.307402
   8 H :    0.142184
   9 H :    0.143921
  10 H :    0.147081
  11 H :    0.133256
  12 H :    0.134999
  13 H :    0.141976
  14 H :    0.163554
  15 H :    0.167037
  16 H :    0.163907
  17 H :    0.188631
  18 H :    0.147369
  19 H :    0.148457
Sum of atomic charges:    0.0000000

LOEWDIN ATOMIC CHARGES
----------------------
   0 C :   -0.422974
   1 C :   -0.314855
   2 C :   -0.289507
   3 C :   -0.228715
   4 C :    0.362720
   5 O :   -0.441488
   6 O :   -0.603570
   7 C :   -0.047148
   8 H :    0.150400
   9 H :    0.151100
  10 H :    0.150113
  11 H :    0.150758
  12 H :    0.150951
  13 H :    0.160513
  14 H :    0.169395
  15 H :    0.183326
  16 H :    0.180586
  17 H :    0.192304
  18 H :    0.173680
  19 H :    0.172410

  Mayer bond orders larger than 0.100000
B(  0-C ,  1-C ) :   0.9014 B(  0-C ,  8-H ) :   0.9819 B(  0-C ,  9-H ) :   0.9830
B(  0-C , 10-H ) :   0.9758 B(  1-C ,  2-C ) :   0.9049 B(  1-C , 11-H ) :   0.9663
B(  1-C , 12-H ) :   0.9786 B(  2-C ,  3-C ) :   0.9377 B(  2-C , 13-H ) :   0.9700
B(  2-C , 14-H ) :   0.9721 B(  3-C ,  4-C ) :   1.0040 B(  3-C , 15-H ) :   0.9380
B(  3-C , 16-H ) :   0.9641 B(  4-C ,  5-O ) :   1.8367 B(  4-C ,  6-O ) :   1.0739
B(  6-O ,  7-C ) :   0.8376 B(  7-C , 17-H ) :   0.9692 B(  7-C , 18-H ) :   0.9668
B(  7-C , 19-H ) :   0.9630

Dispersion correction           -0.004849778
FINAL SINGLE POINT ENERGY      -386.230126929373

DIPOLE MOMENT
-------------

Method             : SCF
Type of density    : Electron Density
Multiplicity       :   1
Irrep              :   0
Energy             :  -386.2373358693463956 Eh
Relativity type    :
Basis              : AO
                                X                 Y                 Z
Electronic contribution:      9.383669170       0.064036866      -0.982510357
Nuclear contribution   :     -9.212275857      -0.273604689       1.653519108
                        -----------------------------------------
Total Dipole Moment    :      0.171393312      -0.209567823       0.671008751
                        -----------------------------------------
Magnitude (a.u.)       :      0.723565535
Magnitude (Debye)      :      1.839157431

Rotational constants in cm-1:             0.246451             0.024826             0.023198
Rotational constants in MHz :          7388.410836           744.275773           695.445570

                             ****ORCA TERMINATED NORMALLY****
TOTAL RUN TIME: 0 days 0 hours 0 minutes 25 seconds 20 msec
