                         Program Version 6.0.0  -   RELEASE  -
|  1> ! r2scan-3c def2/J RI DEFGRID2 scfconv6 printgap
|  2> %output
|  3>     printlevel normal
|  4> end
|  5> %cpcm
|  6>     smd true
|  7>     smdsolvent "water"
|  8> end
|  9> * xyz 0 1
| 10> C -3.9254643711 0.2009574142 -0.2226854099
| 11> C -2.6962445019 -0.3687319915 0.4750316942
| 12> C -1.404702762 0.1393814069 -0.1605981792
| 13> C -0.1692100578 -0.4215574747 0.5393365616
| 14> C 1.108226634 -0.0114155139 -0.1450473415
| 15> O 1.1988411763 0.3670253562 -1.2934539779
| 16> O 2.1477449861 -0.1347257747 0.6749236779
| 17> C 3.4579686773 0.1767094468 0.1891634252
| 18> H -3.9289186491 1.2867409198 -0.1618201128
| 19> H -3.9312776029 -0.0813639513 -1.2729296889
| 20> H -4.8349972822 -0.1731283287 0.2401231018
| 21> H -2.7143115807 -0.0867874107 1.5295536598
| 22> H -2.7212054774 -1.458770543 0.4201565591
| 23> H -1.378352789 1.2301608458 -0.1174453201
| 24> H -1.3719738145 -0.1433766653 -1.2146690076
| 25> H -0.1996764935 -1.5141806972 0.5275702617
| 26> H -0.1195705353 -0.1051207241 1.5814329239
| 27> H 3.4310284228 0.30303154 -0.893674989
| 28> H 4.1070077001 -0.6501878956 0.4676588492
| 29> H 3.7899092018 1.0976737011 0.6663202475
| 30> *
| 31>
| 32>                          ****END OF INPUT****

CARTESIAN COORDINATES (ANGSTROEM)
---------------------------------
  C     -3.925464    0.200957   -0.222685
  C     -2.696245   -0.368732    0.475032
  C     -1.404703    0.139381   -0.160598
  C     -0.169210   -0.421557    0.539337
  C      1.108227   -0.011416   -0.145047
  O      1.198841    0.367025   -1.293454
  O      2.147745   -0.134726    0.674924
  C      3.457969    0.176709    0.189163
  H     -3.928919    1.286741   -0.161820
  H     -3.931278   -0.081364   -1.272930
  H     -4.834997   -0.173128    0.240123
  H     -2.714312   -0.086787    1.529554
  H     -2.721205   -1.458771    0.420157
  H     -1.378353    1.230161   -0.117445
  H     -1.371974   -0.143377   -1.214669
  H     -0.199676   -1.514181    0.527570
  H     -0.119571   -0.105121    1.581433
  H      3.431028    0.303032   -0.893675
  H      4.107008   -0.650188    0.467659
  H      3.789909    1.097674    0.666320

 Total Charge           Charge          ....    0
 Multiplicity           Mult            ....    1
 Number of Electrons    NEL             ....   64
 Basis Dimension        Dim             ....  222

ORBITAL ENERGIES
----------------

  NO   OCC          E(Eh)            E(eV)
   0   2.0000     -19.002940      -517.0963
   1   2.0000     -18.943901      -515.4897
   2   2.0000     -10.162834      -276.5448
   3   2.0000     -10.074599      -274.1438
   4   2.0000     -10.035657      -273.0841
   5   2.0000     -10.021855      -272.7085
   6   2.0000     -10.018198      -272.6090
   7   2.0000     -10.008172      -272.3362
   8   2.0000      -1.077927       -29.3319
   9   2.0000      -0.989384       -26.9225
  10   2.0000      -0.769864       -20.9491
  11   2.0000      -0.723772       -19.6948
  12   2.0000      -0.680009       -18.5040
  13   2.0000      -0.607923       -16.5424
  14   2.0000      -0.545619       -14.8471
  15   2.0000      -0.525511       -14.2999
  16   2.0000      -0.468602       -12.7513
  17   2.0000      -0.461459       -12.5569
  18   2.0000      -0.451197       -12.2777
  19   2.0000      -0.432439       -11.7673
  20   2.0000      -0.396016       -10.7761
  21   2.0000      -0.392760       -10.6876
  22   2.0000      -0.381026       -10.3683
  23   2.0000      -0.357783        -9.7358
  24   2.0000      -0.345306        -9.3963
  25   2.0000      -0.322282        -8.7697
  26   2.0000      -0.316154        -8.6030
  27   2.0000      -0.300991        -8.1904
  28   2.0000      -0.293928        -7.9982
  29   2.0000      -0.289644        -7.8816
  30   2.0000      -0.277597        -7.5538
  31   2.0000      -0.253832        -6.9071
  32   0.0000      -0.019731        -0.5369
  33   0.0000       0.075293         2.0488
  34   0.0000       0.097716         2.6590
  35   0.0000       0.111534         3.0350
  36   0.0000       0.129933         3.5357

MULLIKEN ATOMIC CHARGES
-----------------------
   0 C :   -0.511174
   1 C :   -0.240639
   2 C :   -0.303606
   3 C :   -0.310534
   4 C :    0.424944
   5 O :   -0.517598
   6 O :   -0.210231
   7 C :   -0.322849
   8 H :    0.153673
   9 H :    0.153601
  10 H :    0.157838
  11 H :    0.146886
  12 H :    0.148948
  13 H :    0.157317
  14 H :    0.156995
  15 H :    0.198435
  16 H :    0.183470
  17 H :    0.184855
  18 H :    0.173916
  19 H :    0.175754
Sum of atomic charges:    0.0000000

LOEWDIN ATOMIC CHARGES
----------------------
   0 C :   -0.431975
   1 C :   -0.313729
   2 C :   -0.292709
   3 C :   -0.226051
   4 C :    0.373736
   5 O :   -0.501258
   6 O :   -0.606768
   7 C :   -0.042044
   8 H :    0.152667
   9 H :    0.152654
  10 H :    0.152876
  11 H :    0.155162
  12 H :    0.155161
  13 H :    0.162687
  14 H :    0.165159
  15 H :    0.195334
  16 H :    0.189636
  17 H :    0.191222
  18 H :    0.185090
  19 H :    0.183150

  Mayer bond orders larger than 0.100000
B(  0-C ,  1-C ) :   0.8866 B(  0-C ,  8-H ) :   0.9801 B(  0-C ,  9-H ) :   0.9816
B(  0-C , 10-H ) :   0.9727 B(  1-C ,  2-C ) :   0.9124 B(  1-C , 11-H ) :   0.9666
B(  1-C , 12-H ) :   0.9783 B(  2-C ,  3-C ) :   0.9247 B(  2-C , 13-H ) :   0.9689
B(  2-C , 14-H ) :   0.9714 B(  3-C ,  4-C ) :   1.0095 B(  3-C , 15-H ) :   0.9256
B(  3-C , 16-H ) :   0.9525 B(  4-C ,  5-O ) :   1.7773 B(  4-C ,  6-O ) :   1.0968
B(  6-O ,  7-C ) :   0.8247 B(  7-C , 17-H ) :   0.9654 B(  7-C , 18-H ) :   0.9572
B(  7-C , 19-H ) :   0.9542

Dispersion correction           -0.004849778
FINAL SINGLE POINT ENERGY      -386.234163415562

DIPOLE MOMENT
-------------

Method             : SCF
Type of density    : Electron Density
Multiplicity       :   1
Irrep              :   0
Energy             :  -386.2413723555352476 Eh
Relativity type    :
Basis              : AO
                                X                 Y                 Z
Electronic contribution:      9.452738066      -0.062204950      -0.627147910
Nuclear contribution   :     -9.212275857      -0.273604689       1.653519108
                        -----------------------------------------
Total Dipole Moment    :      0.240462209      -0.335809639       1.026371198
                        -----------------------------------------
Magnitude (a.u.)       :      1.106358000
Magnitude (Debye)      :      2.812138552

Rotational constants in cm-1:             0.246451             0.024826             0.023198
Rotational constants in MHz :          7388.410836           744.275773           695.445570

                             ****ORCA TERMINATED NORMALLY****
TOTAL RUN TIME: 0 days 0 hours 0 minutes 32 seconds 551 msec
