                         Program Version 6.0.0  -   RELEASE  -
|  1> ! pbe def2-sv(p) def2/J RI DEFGRID1 loosescf d4 GCP(DFT/SV(P)) printgap
|  2> %output
|  3>     printlevel normal
|  4> end
|  5> * xyz 0 1
|  6> C -3.3903142784 -1.010175648 0.0610187833
|  7> C -1.9698816918 -0.626974563 0.4551275362
|  8> C -1.3099267756 0.2445210939 -0.6234585253
|  9> C 0.0701976762 0.6372021056 -0.1699550236
| 10> O 0.3071076985 1.4805625759 0.6704059384
| 11> O 1.0069740117 -0.0720902983 -0.7858983858
| 12> C 2.3811382935 0.1352806501 -0.4171897929
| 13> C 2.7738629231 -0.7593206577 0.7484849343
| 14> H -3.8400037848 -1.6258641353 0.8351144031
| 15> H -4.00168792 -0.1214327126 -0.0719680243
| 16> H -3.388392873 -1.5711338961 -0.8698853981
| 17> H -1.3724719626 -1.5291035261 0.6007901269
| 18> H -1.9797528149 -0.0734466273 1.3963130977
| 19> H -1.9001793642 1.1499563629 -0.7656915949
| 20> H -1.2344861265 -0.3061746693 -1.559793147
| 21> H 2.9483108988 -0.110253362 -1.3154613873
| 22> H 2.5163738618 1.1895480132 -0.1572956972
| 23> H 2.5926373096 -1.8010989331 0.4986989482
| 24> H 3.8272384866 -0.6210946529 0.968960025
| 25> H 2.1916379057 -0.4990733981 1.6297023381
| 26> *
| 27>
| 28>                          ****END OF INPUT****

CARTESIAN COORDINATES (ANGSTROEM)
---------------------------------
  C     -3.390314   -1.010176    0.061019
  C     -1.969882   -0.626975    0.455128
  C     -1.309927    0.244521   -0.623459
  C      0.070198    0.637202   -0.169955
  O      0.307108    1.480563    0.670406
  O      1.006974   -0.072090   -0.785898
  C      2.381138    0.135281   -0.417190
  C      2.773863   -0.759321    0.748485
  H     -3.840004   -1.625864    0.835114
  H     -4.001688   -0.121433   -0.071968
  H     -3.388393   -1.571134   -0.869885
  H     -1.372472   -1.529104    0.600790
  H     -1.979753   -0.073447    1.396313
  H     -1.900179    1.149956   -0.765692
  H     -1.234486   -0.306175   -1.559793
  H      2.948311   -0.110253   -1.315461
  H      2.516374    1.189548   -0.157296
  H      2.592637   -1.801099    0.498699
  H      3.827238   -0.621095    0.968960
  H      2.191638   -0.499073    1.629702

 Total Charge           Charge          ....    0
 Multiplicity           Mult            ....    1
 Number of Electrons    NEL             ....   64
 Basis Dimension        Dim             ....  136

ORBITAL ENERGIES
----------------

  NO   OCC          E(Eh)            E(eV)
   0   2.0000     -18.796374      -511.4753
   1   2.0000     -18.729201      -509.6475
   2   2.0000     -10.002977      -272.1948
   3   2.0000      -9.945219      -270.6232
   4   2.0000      -9.895446      -269.2688
   5   2.0000      -9.895054      -269.2581
   6   2.0000      -9.886796      -269.0334
   7   2.0000      -9.880194      -268.8537
   8   2.0000      -1.002638       -27.2832
   9   2.0000      -0.906455       -24.6659
  10   2.0000      -0.728380       -19.8202
  11   2.0000      -0.697135       -18.9700
  12   2.0000      -0.639379       -17.3984
  13   2.0000      -0.587890       -15.9973
  14   2.0000      -0.534566       -14.5463
  15   2.0000      -0.494286       -13.4502
  16   2.0000      -0.451460       -12.2849
  17   2.0000      -0.431323       -11.7369
  18   2.0000      -0.424211       -11.5434
  19   2.0000      -0.401872       -10.9355
  20   2.0000      -0.388876       -10.5819
  21   2.0000      -0.376353       -10.2411
  22   2.0000      -0.354909        -9.6576
  23   2.0000      -0.349203        -9.5023
  24   2.0000      -0.342151        -9.3104
  25   2.0000      -0.330364        -8.9896
  26   2.0000      -0.313125        -8.5206
  27   2.0000      -0.298770        -8.1299
  28   2.0000      -0.297546        -8.0966
  29   2.0000      -0.287642        -7.8271
  30   2.0000      -0.253622        -6.9014
  31   2.0000      -0.215012        -5.8508
  32   0.0000      -0.017872        -0.4863
  33   0.0000       0.038729         1.0539
  34   0.0000       0.052820         1.4373
  35   0.0000       0.075261         2.0480
  36   0.0000       0.079017         2.1501

MULLIKEN ATOMIC CHARGES
-----------------------
   0 C :   -0.243462
   1 C :   -0.239032
   2 C :   -0.121130
   3 C :    0.114641
   4 O :   -0.216271
   5 O :   -0.238360
   6 C :   -0.013735
   7 C :   -0.302517
   8 H :    0.107146
   9 H :    0.100667
  10 H :    0.098896
  11 H :    0.094556
  12 H :    0.107418
  13 H :    0.101534
  14 H :    0.091672
  15 H :    0.101069
  16 H :    0.107988
  17 H :    0.112033
  18 H :    0.111889
  19 H :    0.124998
Sum of atomic charges:   -0.0000000

LOEWDIN ATOMIC CHARGES
----------------------
   0 C :   -0.339129
   1 C :   -0.224999
   2 C :   -0.243015
   3 C :    0.037863
   4 O :   -0.176256
   5 O :   -0.067809
   6 C :   -0.113799
   7 C :   -0.355901
   8 H :    0.121886
   9 H :    0.119208
  10 H :    0.118059
  11 H :    0.117848
  12 H :    0.123186
  13 H :    0.135925
  14 H :    0.127275
  15 H :    0.116594
  16 H :    0.119547
  17 H :    0.123539
  18 H :    0.130017
  19 H :    0.129961

  Mayer bond orders larger than 0.100000
B(  0-C ,  1-C ) :   1.1584 B(  0-C ,  8-H ) :   0.9518 B(  0-C ,  9-H ) :   0.9537
B(  0-C , 10-H ) :   0.9529 B(  1-C ,  2-C ) :   1.1288 B(  1-C , 11-H ) :   0.9276
B(  1-C , 12-H ) :   0.9249 B(  2-C ,  3-C ) :   1.0233 B(  2-C , 13-H ) :   0.8978
B(  2-C , 14-H ) :   0.9041 B(  3-C ,  4-O ) :   2.0367 B(  3-C ,  5-O ) :   1.2158
B(  5-O ,  6-C ) :   0.9212 B(  6-C ,  7-C ) :   1.1740 B(  6-C , 15-H ) :   0.9371
B(  6-C , 16-H ) :   0.9113 B(  7-C , 17-H ) :   0.9494 B(  7-C , 18-H ) :   0.9446
B(  7-C , 19-H ) :   0.9465

Dispersion correction           -0.014751858
FINAL SINGLE POINT ENERGY      -385.457890514774

DIPOLE MOMENT
-------------

Method             : SCF
Type of density    : Electron Density
Multiplicity       :   1
Irrep              :   0
Energy             :  -385.5327880170038384 Eh
Relativity type    :
Basis              : AO
                                X                 Y                 Z
Electronic contribution:      3.546163871       4.926676438      -1.453071692
Nuclear contribution   :     -3.396169738      -5.532284559       1.114221446
                        -----------------------------------------
Total Dipole Moment    :      0.149994133      -0.605608120      -0.338850246
                        -----------------------------------------
Magnitude (a.u.)       :      0.709985158
Magnitude (Debye)      :      1.804638854

Rotational constants in cm-1:             0.140258             0.031847             0.030205
Rotational constants in MHz :          4204.833461           954.734550           905.526873

                             ****ORCA TERMINATED NORMALLY****
TOTAL RUN TIME: 0 days 0 hours 0 minutes 10 seconds 611 msec
