                         Program Version 6.0.0  -   RELEASE  -
|  1> ! pbe def2-sv(p) def2/J RI DEFGRID1 loosescf d4 GCP(DFT/SV(P)) printgap
|  2> %output
|  3>     printlevel normal
|  4> end
|  5> * xyz 0 1
|  6> C 2.0372197468 -0.6360406019 -0.1249733066
|  7> C 1.1143734827 0.372406599 0.5755090428
|  8> C -0.0040373135 0.8953185286 -0.3296147878
|  9> C -1.0774081471 -0.1478257271 -0.6472624684
| 10> N -1.9708318483 -0.3340586367 0.4909444712
| 11> H 3.0514399522 -0.252047579 -0.195281573
| 12> H 2.0754493463 -1.5801235974 0.4123653819
| 13> H 1.6919342713 -0.8405970634 -1.1355693336
| 14> H 0.6711658983 -0.0792873557 1.4643598921
| 15> H 1.7004096167 1.2271055035 0.9166783531
| 16> H -0.4967296996 1.738536773 0.1562625057
| 17> H 0.4325313458 1.2496010806 -1.2649574764
| 18> H -0.5964704952 -1.085585026 -0.9714839899
| 19> H -1.6908781294 0.2143373703 -1.4775540285
| 20> H -1.4445921389 -0.6896091966 1.282303959
| 21> H -2.6754331028 -1.0260226665 0.2625995669
| 22> *
| 23>
| 24>                          ****END OF INPUT****

CARTESIAN COORDINATES (ANGSTROEM)
---------------------------------
  C      2.037220   -0.636041   -0.124973
  C      1.114373    0.372407    0.575509
  C     -0.004037    0.895319   -0.329615
  C     -1.077408   -0.147826   -0.647262
  N     -1.970832   -0.334059    0.490944
  H      3.051440   -0.252048   -0.195282
  H      2.075449   -1.580124    0.412365
  H      1.691934   -0.840597   -1.135569
  H      0.671166   -0.079287    1.464360
  H      1.700410    1.227106    0.916678
  H     -0.496730    1.738537    0.156263
  H      0.432531    1.249601   -1.264957
  H     -0.596470   -1.085585   -0.971484
  H     -1.690878    0.214337   -1.477554
  H     -1.444592   -0.689609    1.282304
  H     -2.675433   -1.026023    0.262600

 Total Charge           Charge          ....    0
 Multiplicity           Mult            ....    1
 Number of Electrons    NEL             ....   42
 Basis Dimension        Dim             ....   92

ORBITAL ENERGIES
----------------

  NO   OCC          E(Eh)            E(eV)
   0   2.0000     -13.952853      -379.6764
   1   2.0000      -9.902004      -269.4472
   2   2.0000      -9.882693      -268.9217
   3   2.0000      -9.876103      -268.7424
   4   2.0000      -9.872266      -268.6380
   5   2.0000      -0.790000       -21.4970
   6   2.0000      -0.703097       -19.1322
   7   2.0000      -0.627207       -17.0672
   8   2.0000      -0.561015       -15.2660
   9   2.0000      -0.496127       -13.5003
  10   2.0000      -0.443313       -12.0632
  11   2.0000      -0.420280       -11.4364
  12   2.0000      -0.389536       -10.5998
  13   2.0000      -0.375728       -10.2241
  14   2.0000      -0.350741        -9.5441
  15   2.0000      -0.329700        -8.9716
  16   2.0000      -0.324423        -8.8280
  17   2.0000      -0.286877        -7.8063
  18   2.0000      -0.280814        -7.6414
  19   2.0000      -0.276565        -7.5257
  20   2.0000      -0.177940        -4.8420
  21   0.0000       0.027705         0.7539
  22   0.0000       0.057604         1.5675
  23   0.0000       0.065556         1.7839
  24   0.0000       0.074260         2.0207
  25   0.0000       0.093004         2.5308

MULLIKEN ATOMIC CHARGES
-----------------------
   0 C :   -0.290917
   1 C :   -0.191247
   2 C :   -0.178591
   3 C :   -0.074534
   4 N :   -0.466923
   5 H :    0.102062
   6 H :    0.099178
   7 H :    0.107836
   8 H :    0.082190
   9 H :    0.091613
  10 H :    0.089089
  11 H :    0.084476
  12 H :    0.065487
  13 H :    0.080081
  14 H :    0.198475
  15 H :    0.201727
Sum of atomic charges:   -0.0000000

LOEWDIN ATOMIC CHARGES
----------------------
   0 C :   -0.349122
   1 C :   -0.238455
   2 C :   -0.236324
   3 C :   -0.177172
   4 N :   -0.419195
   5 H :    0.121415
   6 H :    0.118982
   7 H :    0.116271
   8 H :    0.109776
   9 H :    0.118693
  10 H :    0.120112
  11 H :    0.115208
  12 H :    0.088386
  13 H :    0.111088
  14 H :    0.197046
  15 H :    0.203291

  Mayer bond orders larger than 0.100000
B(  0-C ,  1-C ) :   1.1189 B(  0-C ,  5-H ) :   0.9574 B(  0-C ,  6-H ) :   0.9608
B(  0-C ,  7-H ) :   0.9562 B(  1-C ,  2-C ) :   1.1335 B(  1-C ,  8-H ) :   0.9335
B(  1-C ,  9-H ) :   0.9357 B(  2-C ,  3-C ) :   1.1189 B(  2-C , 10-H ) :   0.9152
B(  2-C , 11-H ) :   0.9225 B(  3-C ,  4-N ) :   1.1052 B(  3-C , 12-H ) :   0.9171
B(  3-C , 13-H ) :   0.9286 B(  4-N , 14-H ) :   0.9014 B(  4-N , 15-H ) :   0.9039

Dispersion correction           -0.010413246
FINAL SINGLE POINT ENERGY      -213.238670749145

DIPOLE MOMENT
-------------

Method             : SCF
Type of density    : Electron Density
Multiplicity       :   1
Irrep              :   0
Energy             :  -213.2988662068473786 Eh
Relativity type    :
Basis              : AO
                                X                 Y                 Z
Electronic contribution:     -2.362059556       0.585441371       0.462332720
Nuclear contribution   :      2.539931643      -1.056030639      -0.513566226
                        -----------------------------------------
Total Dipole Moment    :      0.177872087      -0.470589268      -0.051233505
                        -----------------------------------------
Magnitude (a.u.)       :      0.505685288
Magnitude (Debye)      :      1.285349853

Rotational constants in cm-1:             0.305949             0.088447             0.085704
Rotational constants in MHz :          9172.132890          2651.567939          2569.350971

                             ****ORCA TERMINATED NORMALLY****
TOTAL RUN TIME: 0 days 0 hours 0 minutes 6 seconds 564 msec
