                         Program Version 6.0.0  -   RELEASE  -
|  1> ! pbe def2-sv(p) def2/J RI DEFGRID1 loosescf d4 GCP(DFT/SV(P)) printgap
|  2> %output
|  3>     printlevel normal
|  4> end
|  5> * xyz 0 1
|  6> C -3.4431460672 -0.9593397672 0.3001524757
|  7> C -2.1011503093 -0.6063806067 -0.3281208732
|  8> C -1.2910915851 0.3275677454 0.5836703211
|  9> C 0.0143290514 0.6616059007 -0.0859677063
| 10> O 0.192536208 1.6090616895 -0.8251853395
| 11> O 0.9499106125 -0.2306131113 0.2012434225
| 12> C 2.2542153767 -0.0834115177 -0.3864655974
| 13> C 3.278640836 -0.6880168473 0.5558677693
| 14> H -4.0011193591 -1.6205915956 -0.357028685
| 15> H -3.2965572939 -1.4609807172 1.2530116091
| 16> H -4.0327780331 -0.0620018294 0.4686810931
| 17> H -2.2592019662 -0.1134698541 -1.2897264219
| 18> H -1.5254369075 -1.5168433759 -0.5049448469
| 19> H -1.0893474663 -0.169251104 1.5316406923
| 20> H -1.8454006208 1.2508309651 0.7498967062
| 21> H 2.2460895303 -0.6018588827 -1.3502459535
| 22> H 2.4367110132 0.9814619361 -0.5633199547
| 23> H 3.0438931062 -1.7328277986 0.7357667148
| 24> H 4.2646869319 -0.6129786581 0.1094474419
| 25> H 3.2745925662 -0.1593493331 1.5047759001
| 26> *
| 27>
| 28>                          ****END OF INPUT****

CARTESIAN COORDINATES (ANGSTROEM)
---------------------------------
  C     -3.443146   -0.959340    0.300152
  C     -2.101150   -0.606381   -0.328121
  C     -1.291092    0.327568    0.583670
  C      0.014329    0.661606   -0.085968
  O      0.192536    1.609062   -0.825185
  O      0.949911   -0.230613    0.201243
  C      2.254215   -0.083412   -0.386466
  C      3.278641   -0.688017    0.555868
  H     -4.001119   -1.620592   -0.357029
  H     -3.296557   -1.460981    1.253012
  H     -4.032778   -0.062002    0.468681
  H     -2.259202   -0.113470   -1.289726
  H     -1.525437   -1.516843   -0.504945
  H     -1.089347   -0.169251    1.531641
  H     -1.845401    1.250831    0.749897
  H      2.246090   -0.601859   -1.350246
  H      2.436711    0.981462   -0.563320
  H      3.043893   -1.732828    0.735767
  H      4.264687   -0.612979    0.109447
  H      3.274593   -0.159349    1.504776

 Total Charge           Charge          ....    0
 Multiplicity           Mult            ....    1
 Number of Electrons    NEL             ....   64
 Basis Dimension        Dim             ....  136

ORBITAL ENERGIES
----------------

  NO   OCC          E(Eh)            E(eV)
   0   2.0000     -18.796221      -511.4712
   1   2.0000     -18.727527      -509.6019
   2   2.0000     -10.002090      -272.1707
   3   2.0000      -9.945292      -270.6252
   4   2.0000      -9.895745      -269.2769
   5   2.0000      -9.895293      -269.2646
   6   2.0000      -9.889094      -269.0959
   7   2.0000      -9.880496      -268.8620
   8   2.0000      -1.002464       -27.2784
   9   2.0000      -0.904788       -24.6205
  10   2.0000      -0.729775       -19.8582
  11   2.0000      -0.699648       -19.0384
  12   2.0000      -0.639532       -17.4026
  13   2.0000      -0.581107       -15.8127
  14   2.0000      -0.533821       -14.5260
  15   2.0000      -0.505552       -13.7568
  16   2.0000      -0.450292       -12.2531
  17   2.0000      -0.434640       -11.8272
  18   2.0000      -0.424449       -11.5498
  19   2.0000      -0.398050       -10.8315
  20   2.0000      -0.388377       -10.5683
  21   2.0000      -0.371441       -10.1074
  22   2.0000      -0.360972        -9.8225
  23   2.0000      -0.345784        -9.4093
  24   2.0000      -0.341245        -9.2857
  25   2.0000      -0.333017        -9.0619
  26   2.0000      -0.313691        -8.5360
  27   2.0000      -0.298555        -8.1241
  28   2.0000      -0.297847        -8.1048
  29   2.0000      -0.290765        -7.9121
  30   2.0000      -0.253113        -6.8876
  31   2.0000      -0.212285        -5.7766
  32   0.0000      -0.016403        -0.4463
  33   0.0000       0.039415         1.0725
  34   0.0000       0.047981         1.3056
  35   0.0000       0.076538         2.0827
  36   0.0000       0.078279         2.1301

MULLIKEN ATOMIC CHARGES
-----------------------
   0 C :   -0.242445
   1 C :   -0.240298
   2 C :   -0.115650
   3 C :    0.109264
   4 O :   -0.212889
   5 O :   -0.245287
   6 C :   -0.026096
   7 C :   -0.279588
   8 H :    0.107105
   9 H :    0.098772
  10 H :    0.101215
  11 H :    0.104366
  12 H :    0.096982
  13 H :    0.092541
  14 H :    0.098279
  15 H :    0.102097
  16 H :    0.113408
  17 H :    0.113192
  18 H :    0.111017
  19 H :    0.114014
Sum of atomic charges:    0.0000000

LOEWDIN ATOMIC CHARGES
----------------------
   0 C :   -0.338891
   1 C :   -0.225034
   2 C :   -0.241867
   3 C :    0.034972
   4 O :   -0.173897
   5 O :   -0.071192
   6 C :   -0.110832
   7 C :   -0.351019
   8 H :    0.121841
   9 H :    0.118152
  10 H :    0.119337
  11 H :    0.122411
  12 H :    0.118371
  13 H :    0.128642
  14 H :    0.133603
  15 H :    0.115062
  16 H :    0.119098
  17 H :    0.125373
  18 H :    0.129757
  19 H :    0.126115

  Mayer bond orders larger than 0.100000
B(  0-C ,  1-C ) :   1.1577 B(  0-C ,  8-H ) :   0.9517 B(  0-C ,  9-H ) :   0.9533
B(  0-C , 10-H ) :   0.9533 B(  1-C ,  2-C ) :   1.1300 B(  1-C , 11-H ) :   0.9266
B(  1-C , 12-H ) :   0.9269 B(  2-C ,  3-C ) :   1.0243 B(  2-C , 13-H ) :   0.9004
B(  2-C , 14-H ) :   0.9024 B(  3-C ,  4-O ) :   2.0598 B(  3-C ,  5-O ) :   1.2022
B(  5-O ,  6-C ) :   0.9118 B(  6-C ,  7-C ) :   1.1574 B(  6-C , 15-H ) :   0.9359
B(  6-C , 16-H ) :   0.9161 B(  7-C , 17-H ) :   0.9487 B(  7-C , 18-H ) :   0.9448
B(  7-C , 19-H ) :   0.9523

Dispersion correction           -0.014350433
FINAL SINGLE POINT ENERGY      -385.456889576989

DIPOLE MOMENT
-------------

Method             : SCF
Type of density    : Electron Density
Multiplicity       :   1
Irrep              :   0
Energy             :  -385.5318637290015999 Eh
Relativity type    :
Basis              : AO
                                X                 Y                 Z
Electronic contribution:      2.781499511       4.737201900      -1.807911526
Nuclear contribution   :     -2.594792328      -5.437682877       2.137230614
                        -----------------------------------------
Total Dipole Moment    :      0.186707184      -0.700480977       0.329319087
                        -----------------------------------------
Magnitude (a.u.)       :      0.796231269
Magnitude (Debye)      :      2.023859046

Rotational constants in cm-1:             0.143684             0.030606             0.027130
Rotational constants in MHz :          4307.523777           917.537610           813.347546

                             ****ORCA TERMINATED NORMALLY****
TOTAL RUN TIME: 0 days 0 hours 0 minutes 11 seconds 307 msec
