                         Program Version 6.0.0  -   RELEASE  -
|  1> ! pbe def2-sv(p) def2/J RI DEFGRID1 loosescf d4 GCP(DFT/SV(P)) printgap
|  2> %output
|  3>     printlevel normal
|  4> end
|  5> * xyz 0 1
|  6> C 1.7734386527 -0.8196099211 0.3684504421
|  7> C 1.2154826178 0.5775339148 0.1098712887
|  8> C 0.0367804344 0.5930788008 -0.8730956361
|  9> C -1.3444280426 0.5096850941 -0.2011659137
| 10> N -1.6434605761 -0.7124415815 0.5265899067
| 11> H 2.6091592744 -0.7675471251 1.0628747292
| 12> H 1.0219637535 -1.4804686824 0.7930442614
| 13> H 2.1289557409 -1.2614872502 -0.5602939638
| 14> H 0.9036831642 1.0299904148 1.0544444376
| 15> H 2.0214267088 1.1943401887 -0.2935059979
| 16> H 0.0575752952 1.5222002955 -1.4456595517
| 17> H 0.1427524305 -0.2317668843 -1.5821313618
| 18> H -2.1127253625 0.6198170022 -0.973090099
| 19> H -1.4542943605 1.3420124001 0.4998034668
| 20> H -1.0072423348 -0.8099778829 1.3102030544
| 21> H -1.5077209297 -1.5130671652 -0.081934317
| 22> *
| 23>
| 24>                          ****END OF INPUT****

CARTESIAN COORDINATES (ANGSTROEM)
---------------------------------
  C      1.773439   -0.819610    0.368450
  C      1.215483    0.577534    0.109871
  C      0.036780    0.593079   -0.873096
  C     -1.344428    0.509685   -0.201166
  N     -1.643461   -0.712442    0.526590
  H      2.609159   -0.767547    1.062875
  H      1.021964   -1.480469    0.793044
  H      2.128956   -1.261487   -0.560294
  H      0.903683    1.029990    1.054444
  H      2.021427    1.194340   -0.293506
  H      0.057575    1.522200   -1.445660
  H      0.142752   -0.231767   -1.582131
  H     -2.112725    0.619817   -0.973090
  H     -1.454294    1.342012    0.499803
  H     -1.007242   -0.809978    1.310203
  H     -1.507721   -1.513067   -0.081934

 Total Charge           Charge          ....    0
 Multiplicity           Mult            ....    1
 Number of Electrons    NEL             ....   42
 Basis Dimension        Dim             ....   92

ORBITAL ENERGIES
----------------

  NO   OCC          E(Eh)            E(eV)
   0   2.0000     -13.955353      -379.7445
   1   2.0000      -9.902997      -269.4743
   2   2.0000      -9.885796      -269.0062
   3   2.0000      -9.879315      -268.8298
   4   2.0000      -9.876709      -268.7589
   5   2.0000      -0.792986       -21.5783
   6   2.0000      -0.704753       -19.1773
   7   2.0000      -0.633716       -17.2443
   8   2.0000      -0.556903       -15.1541
   9   2.0000      -0.511326       -13.9139
  10   2.0000      -0.446273       -12.1437
  11   2.0000      -0.408659       -11.1202
  12   2.0000      -0.405503       -11.0343
  13   2.0000      -0.366211        -9.9651
  14   2.0000      -0.353450        -9.6179
  15   2.0000      -0.346690        -9.4339
  16   2.0000      -0.316419        -8.6102
  17   2.0000      -0.294449        -8.0124
  18   2.0000      -0.290531        -7.9058
  19   2.0000      -0.281133        -7.6500
  20   2.0000      -0.179092        -4.8733
  21   0.0000       0.028433         0.7737
  22   0.0000       0.059508         1.6193
  23   0.0000       0.061773         1.6809
  24   0.0000       0.069151         1.8817
  25   0.0000       0.098863         2.6902

MULLIKEN ATOMIC CHARGES
-----------------------
   0 C :   -0.284918
   1 C :   -0.187141
   2 C :   -0.162056
   3 C :   -0.103345
   4 N :   -0.446244
   5 H :    0.103451
   6 H :    0.074635
   7 H :    0.102564
   8 H :    0.083235
   9 H :    0.087647
  10 H :    0.076648
  11 H :    0.074166
  12 H :    0.086042
  13 H :    0.086100
  14 H :    0.209927
  15 H :    0.199288
Sum of atomic charges:   -0.0000000

LOEWDIN ATOMIC CHARGES
----------------------
   0 C :   -0.344854
   1 C :   -0.238830
   2 C :   -0.251505
   3 C :   -0.180531
   4 N :   -0.404157
   5 H :    0.119194
   6 H :    0.103412
   7 H :    0.117580
   8 H :    0.111679
   9 H :    0.118135
  10 H :    0.117596
  11 H :    0.109804
  12 H :    0.110006
  13 H :    0.111077
  14 H :    0.200735
  15 H :    0.200661

  Mayer bond orders larger than 0.100000
B(  0-C ,  1-C ) :   1.1579 B(  0-C ,  5-H ) :   0.9508 B(  0-C ,  6-H ) :   0.9434
B(  0-C ,  7-H ) :   0.9523 B(  1-C ,  2-C ) :   1.0860 B(  1-C ,  8-H ) :   0.9301
B(  1-C ,  9-H ) :   0.9296 B(  2-C ,  3-C ) :   1.0933 B(  2-C , 10-H ) :   0.9108
B(  2-C , 11-H ) :   0.9244 B(  3-C ,  4-N ) :   1.1586 B(  3-C , 12-H ) :   0.9342
B(  3-C , 13-H ) :   0.9317 B(  4-N , 14-H ) :   0.9049 B(  4-N , 15-H ) :   0.9092

Dispersion correction           -0.010614335
FINAL SINGLE POINT ENERGY      -213.243044788875

DIPOLE MOMENT
-------------

Method             : SCF
Type of density    : Electron Density
Multiplicity       :   1
Irrep              :   0
Energy             :  -213.3033618655454404 Eh
Relativity type    :
Basis              : AO
                                X                 Y                 Z
Electronic contribution:     -2.119190167       0.289750614       0.052664439
Nuclear contribution   :      2.621188958      -0.337836264      -0.199995781
                        -----------------------------------------
Total Dipole Moment    :      0.501998791      -0.048085650      -0.147331343
                        -----------------------------------------
Magnitude (a.u.)       :      0.525377522
Magnitude (Debye)      :      1.335403534

Rotational constants in cm-1:             0.251813             0.108035             0.085869
Rotational constants in MHz :          7549.169546          3238.812345          2574.294563

                             ****ORCA TERMINATED NORMALLY****
TOTAL RUN TIME: 0 days 0 hours 0 minutes 7 seconds 658 msec
