                         Program Version 6.0.0  -   RELEASE  -
|  1> ! pbe def2-sv(p) def2/J RI DEFGRID1 loosescf d4 GCP(DFT/SV(P)) printgap
|  2> %output
|  3>     printlevel normal
|  4> end
|  5> * xyz 0 1
|  6> C -2.5710950992 -1.0125167004 -0.6394651183
|  7> C -2.0690105875 -0.5546981809 0.7244223255
|  8> C -1.367415168 0.8079041062 0.6454879081
|  9> C -0.1111104145 0.7192736598 -0.181392852
| 10> O 0.063744726 1.275423027 -1.2473251383
| 11> O 0.8023415509 -0.0493719207 0.3932350678
| 12> C 2.0539002755 -0.2344797122 -0.2876253887
| 13> C 3.0285276236 -0.8809779399 0.6777554232
| 14> H -3.2920792234 -0.3027867489 -1.0381897413
| 15> H -1.7479395111 -1.0879026621 -1.3478266503
| 16> H -3.0494342144 -1.9851861353 -0.5615903791
| 17> H -1.3698063695 -1.2882519296 1.1281964884
| 18> H -2.9113129615 -0.470403906 1.4117683949
| 19> H -1.0876002205 1.128742162 1.6490966059
| 20> H -2.0233388547 1.5498124547 0.1905935602
| 21> H 1.8777125842 -0.8649163867 -1.1654721905
| 22> H 2.4076316017 0.7421311667 -0.6345775281
| 23> H 3.1785731164 -0.2399747883 1.5415294226
| 24> H 2.63886948 -1.8369814977 1.0143826901
| 25> H 3.9787621748 -1.0367456831 0.1778102273
| 26> *
| 27>
| 28>                          ****END OF INPUT****

CARTESIAN COORDINATES (ANGSTROEM)
---------------------------------
  C     -2.571095   -1.012517   -0.639465
  C     -2.069011   -0.554698    0.724422
  C     -1.367415    0.807904    0.645488
  C     -0.111110    0.719274   -0.181393
  O      0.063745    1.275423   -1.247325
  O      0.802342   -0.049372    0.393235
  C      2.053900   -0.234480   -0.287625
  C      3.028528   -0.880978    0.677755
  H     -3.292079   -0.302787   -1.038190
  H     -1.747940   -1.087903   -1.347827
  H     -3.049434   -1.985186   -0.561590
  H     -1.369806   -1.288252    1.128196
  H     -2.911313   -0.470404    1.411768
  H     -1.087600    1.128742    1.649097
  H     -2.023339    1.549812    0.190594
  H      1.877713   -0.864916   -1.165472
  H      2.407632    0.742131   -0.634578
  H      3.178573   -0.239975    1.541529
  H      2.638869   -1.836981    1.014383
  H      3.978762   -1.036746    0.177810

 Total Charge           Charge          ....    0
 Multiplicity           Mult            ....    1
 Number of Electrons    NEL             ....   64
 Basis Dimension        Dim             ....  136

ORBITAL ENERGIES
----------------

  NO   OCC          E(Eh)            E(eV)
   0   2.0000     -18.797486      -511.5056
   1   2.0000     -18.728905      -509.6394
   2   2.0000     -10.003040      -272.1965
   3   2.0000      -9.947285      -270.6794
   4   2.0000      -9.895872      -269.2804
   5   2.0000      -9.894032      -269.2303
   6   2.0000      -9.889882      -269.1174
   7   2.0000      -9.877146      -268.7708
   8   2.0000      -1.004526       -27.3345
   9   2.0000      -0.905553       -24.6414
  10   2.0000      -0.730660       -19.8823
  11   2.0000      -0.698693       -19.0124
  12   2.0000      -0.636452       -17.3187
  13   2.0000      -0.581650       -15.8275
  14   2.0000      -0.535261       -14.5652
  15   2.0000      -0.507304       -13.8044
  16   2.0000      -0.453073       -12.3287
  17   2.0000      -0.432802       -11.7771
  18   2.0000      -0.416666       -11.3381
  19   2.0000      -0.401605       -10.9282
  20   2.0000      -0.391933       -10.6650
  21   2.0000      -0.364306        -9.9133
  22   2.0000      -0.362183        -9.8555
  23   2.0000      -0.354357        -9.6425
  24   2.0000      -0.342175        -9.3111
  25   2.0000      -0.322489        -8.7754
  26   2.0000      -0.313014        -8.5175
  27   2.0000      -0.299684        -8.1548
  28   2.0000      -0.296888        -8.0787
  29   2.0000      -0.294467        -8.0129
  30   2.0000      -0.255356        -6.9486
  31   2.0000      -0.211608        -5.7582
  32   0.0000      -0.018943        -0.5155
  33   0.0000       0.035412         0.9636
  34   0.0000       0.052136         1.4187
  35   0.0000       0.071668         1.9502
  36   0.0000       0.079703         2.1688

MULLIKEN ATOMIC CHARGES
-----------------------
   0 C :   -0.286642
   1 C :   -0.216655
   2 C :   -0.097270
   3 C :    0.082110
   4 O :   -0.209208
   5 O :   -0.244675
   6 C :   -0.027798
   7 C :   -0.273807
   8 H :    0.103197
   9 H :    0.119059
  10 H :    0.105782
  11 H :    0.101185
  12 H :    0.094713
  13 H :    0.103869
  14 H :    0.096614
  15 H :    0.101947
  16 H :    0.108364
  17 H :    0.114436
  18 H :    0.113713
  19 H :    0.111066
Sum of atomic charges:    0.0000000

LOEWDIN ATOMIC CHARGES
----------------------
   0 C :   -0.342521
   1 C :   -0.228819
   2 C :   -0.242337
   3 C :    0.031856
   4 O :   -0.169130
   5 O :   -0.071381
   6 C :   -0.108591
   7 C :   -0.350808
   8 H :    0.120628
   9 H :    0.121062
  10 H :    0.120495
  11 H :    0.118883
  12 H :    0.118614
  13 H :    0.135988
  14 H :    0.131890
  15 H :    0.114722
  16 H :    0.117147
  17 H :    0.126341
  18 H :    0.125799
  19 H :    0.130161

  Mayer bond orders larger than 0.100000
B(  0-C ,  1-C ) :   1.1525 B(  0-C ,  8-H ) :   0.9535 B(  0-C ,  9-H ) :   0.9480
B(  0-C , 10-H ) :   0.9514 B(  1-C ,  2-C ) :   1.1100 B(  1-C , 11-H ) :   0.9249
B(  1-C , 12-H ) :   0.9275 B(  2-C ,  3-C ) :   1.0360 B(  2-C , 13-H ) :   0.8950
B(  2-C , 14-H ) :   0.9098 B(  3-C ,  4-O ) :   2.0554 B(  3-C ,  5-O ) :   1.1916
B(  5-O ,  6-C ) :   0.9141 B(  6-C ,  7-C ) :   1.1505 B(  6-C , 15-H ) :   0.9345
B(  6-C , 16-H ) :   0.9265 B(  7-C , 17-H ) :   0.9513 B(  7-C , 18-H ) :   0.9490
B(  7-C , 19-H ) :   0.9446

Dispersion correction           -0.015009672
FINAL SINGLE POINT ENERGY      -385.457288422912

DIPOLE MOMENT
-------------

Method             : SCF
Type of density    : Electron Density
Multiplicity       :   1
Irrep              :   0
Energy             :  -385.5322108183686964 Eh
Relativity type    :
Basis              : AO
                                X                 Y                 Z
Electronic contribution:      1.517750368       4.798156249      -1.615158624
Nuclear contribution   :     -1.300555629      -5.322300026       2.206775977
                        -----------------------------------------
Total Dipole Moment    :      0.217194739      -0.524143777       0.591617353
                        -----------------------------------------
Magnitude (a.u.)       :      0.819701986
Magnitude (Debye)      :      2.083516868

Rotational constants in cm-1:             0.114878             0.036964             0.033346
Rotational constants in MHz :          3443.948876          1108.147292           999.700580

                             ****ORCA TERMINATED NORMALLY****
TOTAL RUN TIME: 0 days 0 hours 0 minutes 10 seconds 611 msec
