                         Program Version 6.0.0  -   RELEASE  -
|  1> ! pbe def2-sv(p) def2/J RI DEFGRID1 loosescf d4 GCP(DFT/SV(P)) printgap
|  2> %output
|  3>     printlevel normal
|  4> end
|  5> * xyz 0 1
|  6> C -3.3809621699 -0.9725920932 0.3876761087
|  7> C -1.8997897403 -0.900284652 0.0354919427
|  8> C -1.3769001159 0.5282982438 0.1613698826
|  9> C 0.0803295492 0.6956794375 -0.1822006115
| 10> O 0.6033978907 1.7757358547 -0.3786976825
| 11> O 0.73379096 -0.4547474312 -0.2458373897
| 12> C 2.1412774222 -0.4276221163 -0.5345204528
| 13> C 2.9581171499 -0.2406146673 0.7348968655
| 14> H -3.9628377974 -0.3365302472 -0.2749064289
| 15> H -3.7423719863 -1.9924972373 0.2900436371
| 16> H -3.5467471403 -0.6450509571 1.4109895831
| 17> H -1.7468107259 -1.2513001637 -0.9862353704
| 18> H -1.3308563075 -1.5534351647 0.6977504571
| 19> H -1.4986883745 0.8836237062 1.1883532619
| 20> H -1.9416377861 1.2103018891 -0.4777254319
| 21> H 2.3440088479 -1.3932377875 -0.9986574112
| 22> H 2.3377260955 0.3842810557 -1.2413842383
| 23> H 2.7150167799 -1.0175545183 1.4545950857
| 24> H 4.0147083775 -0.2927392619 0.4935654805
| 25> H 2.7442155539 0.7308938031 1.1750249681
| 26> *
| 27>
| 28>                          ****END OF INPUT****

CARTESIAN COORDINATES (ANGSTROEM)
---------------------------------
  C     -3.380962   -0.972592    0.387676
  C     -1.899790   -0.900285    0.035492
  C     -1.376900    0.528298    0.161370
  C      0.080330    0.695679   -0.182201
  O      0.603398    1.775736   -0.378698
  O      0.733791   -0.454747   -0.245837
  C      2.141277   -0.427622   -0.534520
  C      2.958117   -0.240615    0.734897
  H     -3.962838   -0.336530   -0.274906
  H     -3.742372   -1.992497    0.290044
  H     -3.546747   -0.645051    1.410990
  H     -1.746811   -1.251300   -0.986235
  H     -1.330856   -1.553435    0.697750
  H     -1.498688    0.883624    1.188353
  H     -1.941638    1.210302   -0.477725
  H      2.344009   -1.393238   -0.998657
  H      2.337726    0.384281   -1.241384
  H      2.715017   -1.017555    1.454595
  H      4.014708   -0.292739    0.493565
  H      2.744216    0.730894    1.175025

 Total Charge           Charge          ....    0
 Multiplicity           Mult            ....    1
 Number of Electrons    NEL             ....   64
 Basis Dimension        Dim             ....  136

ORBITAL ENERGIES
----------------

  NO   OCC          E(Eh)            E(eV)
   0   2.0000     -18.797447      -511.5045
   1   2.0000     -18.728966      -509.6411
   2   2.0000     -10.001796      -272.1627
   3   2.0000      -9.945389      -270.6278
   4   2.0000      -9.895867      -269.2802
   5   2.0000      -9.888608      -269.0827
   6   2.0000      -9.885910      -269.0093
   7   2.0000      -9.877477      -268.7798
   8   2.0000      -1.003771       -27.3140
   9   2.0000      -0.905052       -24.6277
  10   2.0000      -0.728308       -19.8183
  11   2.0000      -0.694242       -18.8913
  12   2.0000      -0.637953       -17.3596
  13   2.0000      -0.587970       -15.9995
  14   2.0000      -0.534455       -14.5433
  15   2.0000      -0.496457       -13.5093
  16   2.0000      -0.453385       -12.3372
  17   2.0000      -0.437618       -11.9082
  18   2.0000      -0.416029       -11.3207
  19   2.0000      -0.399722       -10.8770
  20   2.0000      -0.388560       -10.5732
  21   2.0000      -0.369404       -10.0520
  22   2.0000      -0.359863        -9.7924
  23   2.0000      -0.353316        -9.6142
  24   2.0000      -0.331978        -9.0336
  25   2.0000      -0.320635        -8.7249
  26   2.0000      -0.318032        -8.6541
  27   2.0000      -0.305702        -8.3186
  28   2.0000      -0.294565        -8.0155
  29   2.0000      -0.287059        -7.8113
  30   2.0000      -0.253290        -6.8924
  31   2.0000      -0.212880        -5.7928
  32   0.0000      -0.017097        -0.4652
  33   0.0000       0.035501         0.9660
  34   0.0000       0.051900         1.4123
  35   0.0000       0.075596         2.0571
  36   0.0000       0.079351         2.1593

MULLIKEN ATOMIC CHARGES
-----------------------
   0 C :   -0.256567
   1 C :   -0.188530
   2 C :   -0.194462
   3 C :    0.135970
   4 O :   -0.215277
   5 O :   -0.236339
   6 C :   -0.012342
   7 C :   -0.304612
   8 H :    0.097876
   9 H :    0.104411
  10 H :    0.096347
  11 H :    0.092193
  12 H :    0.094433
  13 H :    0.115417
  14 H :    0.110651
  15 H :    0.101020
  16 H :    0.108355
  17 H :    0.112064
  18 H :    0.112369
  19 H :    0.127024
Sum of atomic charges:   -0.0000000

LOEWDIN ATOMIC CHARGES
----------------------
   0 C :   -0.339938
   1 C :   -0.236536
   2 C :   -0.247573
   3 C :    0.036299
   4 O :   -0.178569
   5 O :   -0.059866
   6 C :   -0.112717
   7 C :   -0.356290
   8 H :    0.117263
   9 H :    0.120236
  10 H :    0.117007
  11 H :    0.118139
  12 H :    0.118789
  13 H :    0.143005
  14 H :    0.139523
  15 H :    0.116644
  16 H :    0.119858
  17 H :    0.123706
  18 H :    0.130333
  19 H :    0.130686

  Mayer bond orders larger than 0.100000
B(  0-C ,  1-C ) :   1.1513 B(  0-C ,  8-H ) :   0.9536 B(  0-C ,  9-H ) :   0.9536
B(  0-C , 10-H ) :   0.9537 B(  1-C ,  2-C ) :   1.1269 B(  1-C , 11-H ) :   0.9325
B(  1-C , 12-H ) :   0.9203 B(  2-C ,  3-C ) :   1.0312 B(  2-C , 13-H ) :   0.8930
B(  2-C , 14-H ) :   0.9054 B(  3-C ,  4-O ) :   2.0398 B(  3-C ,  5-O ) :   1.2214
B(  5-O ,  6-C ) :   0.9202 B(  6-C ,  7-C ) :   1.1745 B(  6-C , 15-H ) :   0.9370
B(  6-C , 16-H ) :   0.9127 B(  7-C , 17-H ) :   0.9493 B(  7-C , 18-H ) :   0.9446
B(  7-C , 19-H ) :   0.9457

Dispersion correction           -0.014783008
FINAL SINGLE POINT ENERGY      -385.456967521564

DIPOLE MOMENT
-------------

Method             : SCF
Type of density    : Electron Density
Multiplicity       :   1
Irrep              :   0
Energy             :  -385.5322598454922627 Eh
Relativity type    :
Basis              : AO
                                X                 Y                 Z
Electronic contribution:      3.421054898       4.176210850      -2.418842805
Nuclear contribution   :     -3.370963883      -4.927594908       2.553260563
                        -----------------------------------------
Total Dipole Moment    :      0.050091015      -0.751384058       0.134417758
                        -----------------------------------------
Magnitude (a.u.)       :      0.764954408
Magnitude (Debye)      :      1.944359584

Rotational constants in cm-1:             0.139093             0.033303             0.029154
Rotational constants in MHz :          4169.917020           998.408008           874.019955

                             ****ORCA TERMINATED NORMALLY****
TOTAL RUN TIME: 0 days 0 hours 0 minutes 9 seconds 866 msec
