                         Program Version 6.0.0  -   RELEASE  -
|  1> ! pbe def2-sv(p) def2/J RI DEFGRID1 loosescf d4 GCP(DFT/SV(P)) printgap
|  2> %output
|  3>     printlevel normal
|  4> end
|  5> * xyz 0 1
|  6> C 2.1251060495 -0.3393890459 0.5861147048
|  7> C 1.3849189938 0.4527939139 -0.4858860652
|  8> C -0.0375725699 -0.0488947205 -0.7328646746
|  9> C -0.9816489855 0.2059806365 0.4407657346
| 10> N -2.3186344607 -0.2801217963 0.1211742883
| 11> H 2.1319301347 -1.3978173536 0.3370208097
| 12> H 3.1542414913 0.0032779055 0.6626940397
| 13> H 1.653884103 -0.2172449243 1.5575946912
| 14> H 1.3507799957 1.5069973957 -0.2003023367
| 15> H 1.9418064656 0.3822350846 -1.4226722065
| 16> H -0.4423337323 0.4543033039 -1.6148566193
| 17> H -0.0227694024 -1.1194429512 -0.9410380928
| 18> H -0.9625113454 1.2824747072 0.6886457844
| 19> H -0.6413508727 -0.3457752136 1.3202512054
| 20> H -2.6798442179 0.2223493354 -0.6831897069
| 21> H -2.9445166082 -0.1019286179 0.8983946218
| 22> *
| 23>
| 24>                          ****END OF INPUT****

CARTESIAN COORDINATES (ANGSTROEM)
---------------------------------
  C      2.125106   -0.339389    0.586115
  C      1.384919    0.452794   -0.485886
  C     -0.037573   -0.048895   -0.732865
  C     -0.981649    0.205981    0.440766
  N     -2.318634   -0.280122    0.121174
  H      2.131930   -1.397817    0.337021
  H      3.154241    0.003278    0.662694
  H      1.653884   -0.217245    1.557595
  H      1.350780    1.506997   -0.200302
  H      1.941806    0.382235   -1.422672
  H     -0.442334    0.454303   -1.614857
  H     -0.022769   -1.119443   -0.941038
  H     -0.962511    1.282475    0.688646
  H     -0.641351   -0.345775    1.320251
  H     -2.679844    0.222349   -0.683190
  H     -2.944517   -0.101929    0.898395

 Total Charge           Charge          ....    0
 Multiplicity           Mult            ....    1
 Number of Electrons    NEL             ....   42
 Basis Dimension        Dim             ....   92

ORBITAL ENERGIES
----------------

  NO   OCC          E(Eh)            E(eV)
   0   2.0000     -13.952712      -379.6726
   1   2.0000      -9.902368      -269.4571
   2   2.0000      -9.880887      -268.8726
   3   2.0000      -9.876530      -268.7540
   4   2.0000      -9.870225      -268.5825
   5   2.0000      -0.789451       -21.4820
   6   2.0000      -0.705214       -19.1899
   7   2.0000      -0.625453       -17.0194
   8   2.0000      -0.556168       -15.1341
   9   2.0000      -0.503064       -13.6891
  10   2.0000      -0.436706       -11.8834
  11   2.0000      -0.412497       -11.2246
  12   2.0000      -0.395054       -10.7500
  13   2.0000      -0.382862       -10.4182
  14   2.0000      -0.347726        -9.4621
  15   2.0000      -0.328167        -8.9299
  16   2.0000      -0.320762        -8.7284
  17   2.0000      -0.286790        -7.8039
  18   2.0000      -0.284163        -7.7325
  19   2.0000      -0.275045        -7.4844
  20   2.0000      -0.178143        -4.8475
  21   0.0000       0.036481         0.9927
  22   0.0000       0.047908         1.3036
  23   0.0000       0.065961         1.7949
  24   0.0000       0.078640         2.1399
  25   0.0000       0.103599         2.8191

MULLIKEN ATOMIC CHARGES
-----------------------
   0 C :   -0.292453
   1 C :   -0.170694
   2 C :   -0.171260
   3 C :   -0.092655
   4 N :   -0.453128
   5 H :    0.099754
   6 H :    0.101783
   7 H :    0.108157
   8 H :    0.080547
   9 H :    0.085176
  10 H :    0.074345
  11 H :    0.088416
  12 H :    0.059899
  13 H :    0.084547
  14 H :    0.197926
  15 H :    0.199639
Sum of atomic charges:   -0.0000000

LOEWDIN ATOMIC CHARGES
----------------------
   0 C :   -0.343044
   1 C :   -0.234349
   2 C :   -0.234831
   3 C :   -0.177378
   4 N :   -0.418446
   5 H :    0.118150
   6 H :    0.118956
   7 H :    0.116149
   8 H :    0.112289
   9 H :    0.115944
  10 H :    0.110555
  11 H :    0.118398
  12 H :    0.086211
  13 H :    0.109784
  14 H :    0.199108
  15 H :    0.202504

  Mayer bond orders larger than 0.100000
B(  0-C ,  1-C ) :   1.1517 B(  0-C ,  5-H ) :   0.9552 B(  0-C ,  6-H ) :   0.9519
B(  0-C ,  7-H ) :   0.9528 B(  1-C ,  2-C ) :   1.1147 B(  1-C ,  8-H ) :   0.9247
B(  1-C ,  9-H ) :   0.9277 B(  2-C ,  3-C ) :   1.1327 B(  2-C , 10-H ) :   0.9232
B(  2-C , 11-H ) :   0.9185 B(  3-C ,  4-N ) :   1.1061 B(  3-C , 12-H ) :   0.9196
B(  3-C , 13-H ) :   0.9226 B(  4-N , 14-H ) :   0.9037 B(  4-N , 15-H ) :   0.9048

Dispersion correction           -0.010102088
FINAL SINGLE POINT ENERGY      -213.244441025489

DIPOLE MOMENT
-------------

Method             : SCF
Type of density    : Electron Density
Multiplicity       :   1
Irrep              :   0
Energy             :  -213.3046824473846357 Eh
Relativity type    :
Basis              : AO
                                X                 Y                 Z
Electronic contribution:     -2.482031433      -0.134810825      -0.481590378
Nuclear contribution   :      2.369620830       0.626502072       0.565944499
                        -----------------------------------------
Total Dipole Moment    :     -0.112410603       0.491691247       0.084354121
                        -----------------------------------------
Magnitude (a.u.)       :      0.511382483
Magnitude (Debye)      :      1.299830972

Rotational constants in cm-1:             0.408676             0.077912             0.071906
Rotational constants in MHz :         12251.809672          2335.735757          2155.701258

                             ****ORCA TERMINATED NORMALLY****
TOTAL RUN TIME: 0 days 0 hours 0 minutes 7 seconds 683 msec
