                         Program Version 6.0.0  -   RELEASE  -
|  1> ! pbe def2-sv(p) def2/J RI DEFGRID1 loosescf d4 GCP(DFT/SV(P)) printgap
|  2> %output
|  3>     printlevel normal
|  4> end
|  5> * xyz 0 1
|  6> C -3.5443619217 0.2216311082 -1.8196098029
|  7> C -3.138566779 -0.4361997454 -0.5005172943
|  8> H -3.5583618586 -1.444336129 -0.4390979785
|  9> C -1.6322486174 -0.5287790482 -0.3498041553
| 10> C -1.0253008774 -1.787492567 -0.1890099148
| 11> C 0.3306780079 -1.9017654932 -0.0595191961
| 12> C 1.1589920785 -0.7611651685 -0.0777914254
| 13> C 2.5600872311 -0.8567940599 0.055678173
| 14> C 3.3368058413 0.2743817721 0.0386225459
| 15> C 2.7298218946 1.5437371114 -0.1139671853
| 16> C 1.3794243994 1.656298845 -0.2449774908
| 17> C 0.5519660289 0.5109185522 -0.2317065799
| 18> C -0.8462895455 0.5961738004 -0.3629998317
| 19> O 4.6948036292 0.303486156 0.15907467
| 20> C 5.3850429722 -0.9212530297 0.3137321493
| 21> C -3.6420435101 0.3220089002 0.7081974299
| 22> O -4.009245851 -0.2183339614 1.7323372928
| 23> O -3.6102690597 1.6341803304 0.5713452448
| 24> H -4.6274176466 0.2399493245 -1.9110092677
| 25> H -3.1727867983 1.2399223206 -1.8726891228
| 26> H -3.130392078 -0.3474323946 -2.6473815937
| 27> H -1.6460052245 -2.6711038938 -0.1694185426
| 28> H 0.7848247708 -2.8743365078 0.0606551195
| 29> H 2.9917818379 -1.8384272844 0.1708746365
| 30> H 3.3758144096 2.4073664863 -0.1220800284
| 31> H 0.9227410582 2.6274247201 -0.3617067012
| 32> H -1.2926928311 1.5736490939 -0.4702735829
| 33> H 5.0700549601 -1.4384691143 1.2238210974
| 34> H 6.4358051665 -0.6514479378 0.3902003786
| 35> H 5.2329794594 -1.5705373089 -0.5524302302
| 36> H -3.9079295416 2.102725304 1.3752095652
| 37> *
| 38>
| 39>                          ****END OF INPUT****

CARTESIAN COORDINATES (ANGSTROEM)
---------------------------------
  C     -3.544362    0.221631   -1.819610
  C     -3.138567   -0.436200   -0.500517
  H     -3.558362   -1.444336   -0.439098
  C     -1.632249   -0.528779   -0.349804
  C     -1.025301   -1.787493   -0.189010
  C      0.330678   -1.901765   -0.059519
  C      1.158992   -0.761165   -0.077791
  C      2.560087   -0.856794    0.055678
  C      3.336806    0.274382    0.038623
  C      2.729822    1.543737   -0.113967
  C      1.379424    1.656299   -0.244977
  C      0.551966    0.510919   -0.231707
  C     -0.846290    0.596174   -0.363000
  O      4.694804    0.303486    0.159075
  C      5.385043   -0.921253    0.313732
  C     -3.642044    0.322009    0.708197
  O     -4.009246   -0.218334    1.732337
  O     -3.610269    1.634180    0.571345
  H     -4.627418    0.239949   -1.911009
  H     -3.172787    1.239922   -1.872689
  H     -3.130392   -0.347432   -2.647382
  H     -1.646005   -2.671104   -0.169419
  H      0.784825   -2.874337    0.060655
  H      2.991782   -1.838427    0.170875
  H      3.375814    2.407366   -0.122080
  H      0.922741    2.627425   -0.361707
  H     -1.292693    1.573649   -0.470274
  H      5.070055   -1.438469    1.223821
  H      6.435805   -0.651448    0.390200
  H      5.232979   -1.570537   -0.552430
  H     -3.907930    2.102725    1.375210

 Total Charge           Charge          ....    0
 Multiplicity           Mult            ....    1
 Number of Electrons    NEL             ....  122
 Basis Dimension        Dim             ....  266

ORBITAL ENERGIES
----------------

  NO   OCC          E(Eh)            E(eV)
   0   2.0000     -18.803256      -511.6626
   1   2.0000     -18.792567      -511.3717
   2   2.0000     -18.733549      -509.7658
   3   2.0000     -10.009388      -272.3693
   4   2.0000      -9.952658      -270.8256
   5   2.0000      -9.943207      -270.5684
   6   2.0000      -9.911780      -269.7132
   7   2.0000      -9.904271      -269.5089
   8   2.0000      -9.903380      -269.4847
   9   2.0000      -9.899209      -269.3712
  10   2.0000      -9.895875      -269.2805
  11   2.0000      -9.892218      -269.1809
  12   2.0000      -9.892014      -269.1754
  13   2.0000      -9.891268      -269.1551
  14   2.0000      -9.890114      -269.1237
  15   2.0000      -9.889618      -269.1102
  16   2.0000      -9.883787      -268.9515
  17   2.0000      -1.010974       -27.5100
  18   2.0000      -0.972078       -26.4516
  19   2.0000      -0.907440       -24.6927
  20   2.0000      -0.796340       -21.6695
  21   2.0000      -0.757583       -20.6149
  22   2.0000      -0.720316       -19.6008
  23   2.0000      -0.694735       -18.9047
  24   2.0000      -0.673789       -18.3347
  25   2.0000      -0.647523       -17.6200
  26   2.0000      -0.627920       -17.0866
  27   2.0000      -0.603112       -16.4115
  28   2.0000      -0.570239       -15.5170
  29   2.0000      -0.557122       -15.1601
  30   2.0000      -0.539491       -14.6803
  31   2.0000      -0.525007       -14.2862
  32   2.0000      -0.482809       -13.1379
  33   2.0000      -0.465768       -12.6742
  34   2.0000      -0.461428       -12.5561
  35   2.0000      -0.433094       -11.7851
  36   2.0000      -0.424096       -11.5402
  37   2.0000      -0.420163       -11.4332
  38   2.0000      -0.410453       -11.1690
  39   2.0000      -0.407074       -11.0771
  40   2.0000      -0.399248       -10.8641
  41   2.0000      -0.393486       -10.7073
  42   2.0000      -0.381036       -10.3685
  43   2.0000      -0.375834       -10.2270
  44   2.0000      -0.365308        -9.9405
  45   2.0000      -0.357979        -9.7411
  46   2.0000      -0.354765        -9.6536
  47   2.0000      -0.344719        -9.3803
  48   2.0000      -0.332727        -9.0539
  49   2.0000      -0.327876        -8.9220
  50   2.0000      -0.318164        -8.6577
  51   2.0000      -0.313839        -8.5400
  52   2.0000      -0.303637        -8.2624
  53   2.0000      -0.293496        -7.9864
  54   2.0000      -0.282266        -7.6809
  55   2.0000      -0.270510        -7.3609
  56   2.0000      -0.268177        -7.2975
  57   2.0000      -0.252684        -6.8759
  58   2.0000      -0.216426        -5.8893
  59   2.0000      -0.209884        -5.7112
  60   2.0000      -0.185077        -5.0362
  61   0.0000      -0.065542        -1.7835
  62   0.0000      -0.040129        -1.0920
  63   0.0000      -0.010020        -0.2727
  64   0.0000      -0.004858        -0.1322
  65   0.0000       0.021890         0.5957

MULLIKEN ATOMIC CHARGES
-----------------------
   0 C :   -0.223499
   1 C :   -0.121460
   2 H :    0.078581
   3 C :    0.111304
   4 C :   -0.095729
   5 C :   -0.131575
   6 C :    0.172782
   7 C :   -0.300771
   8 C :    0.294565
   9 C :   -0.092834
  10 C :   -0.130413
  11 C :    0.184159
  12 C :   -0.224266
  13 O :   -0.267678
  14 C :   -0.114660
  15 C :    0.110763
  16 O :   -0.188340
  17 O :   -0.287799
  18 H :    0.105526
  19 H :    0.120522
  20 H :    0.107332
  21 H :    0.040582
  22 H :    0.033468
  23 H :    0.024482
  24 H :    0.046400
  25 H :    0.040309
  26 H :    0.038759
  27 H :    0.112824
  28 H :    0.126939
  29 H :    0.112128
  30 H :    0.317596
Sum of atomic charges:   -0.0000000

LOEWDIN ATOMIC CHARGES
----------------------
   0 C :   -0.321330
   1 C :   -0.149571
   2 H :    0.135907
   3 C :   -0.035186
   4 C :   -0.117394
   5 C :   -0.114779
   6 C :   -0.017280
   7 C :   -0.173841
   8 C :    0.029472
   9 C :   -0.132665
  10 C :   -0.105324
  11 C :   -0.033663
  12 C :   -0.109153
  13 O :   -0.088706
  14 C :   -0.202117
  15 C :    0.033736
  16 O :   -0.172123
  17 O :   -0.196045
  18 H :    0.122107
  19 H :    0.124210
  20 H :    0.125132
  21 H :    0.124493
  22 H :    0.122708
  23 H :    0.125944
  24 H :    0.131395
  25 H :    0.125534
  26 H :    0.123284
  27 H :    0.110989
  28 H :    0.123182
  29 H :    0.110729
  30 H :    0.300352

  Mayer bond orders larger than 0.100000
B(  0-C ,  1-C ) :   1.0898 B(  0-C , 18-H ) :   0.9503 B(  0-C , 19-H ) :   0.9368
B(  0-C , 20-H ) :   0.9463 B(  1-C ,  2-H ) :   0.8744 B(  1-C ,  3-C ) :   0.9963
B(  1-C , 15-C ) :   0.9430 B(  3-C ,  4-C ) :   1.2931 B(  3-C , 12-C ) :   1.4138
B(  4-C ,  5-C ) :   1.4397 B(  4-C , 21-H ) :   0.9576 B(  5-C ,  6-C ) :   1.2387
B(  5-C , 22-H ) :   0.9639 B(  6-C ,  7-C ) :   1.2002 B(  6-C , 11-C ) :   1.2507
B(  7-C ,  8-C ) :   1.3366 B(  7-C , 23-H ) :   0.9643 B(  8-C ,  9-C ) :   1.2431
B(  8-C , 13-O ) :   1.1404 B(  9-C , 10-C ) :   1.4606 B(  9-C , 24-H ) :   0.9614
B( 10-C , 11-C ) :   1.2016 B( 10-C , 25-H ) :   0.9676 B( 11-C , 12-C ) :   1.2322
B( 12-C , 26-H ) :   0.9533 B( 13-O , 14-C ) :   0.9877 B( 14-C , 27-H ) :   0.9413
B( 14-C , 28-H ) :   0.9585 B( 14-C , 29-H ) :   0.9416 B( 15-C , 16-O ) :   2.1317
B( 15-C , 17-O ) :   1.2496 B( 17-O , 30-H ) :   0.8172

Dispersion correction           -0.039016122
FINAL SINGLE POINT ENERGY      -765.992551869769

DIPOLE MOMENT
-------------

Method             : SCF
Type of density    : Electron Density
Multiplicity       :   1
Irrep              :   0
Energy             :  -766.0869744608378369 Eh
Relativity type    :
Basis              : AO
                                X                 Y                 Z
Electronic contribution:     -2.624365338       2.579835525       4.586958732
Nuclear contribution   :      3.220026269      -2.456044425      -4.959586188
                        -----------------------------------------
Total Dipole Moment    :      0.595660931       0.123791101      -0.372627456
                        -----------------------------------------
Magnitude (a.u.)       :      0.713433530
Magnitude (Debye)      :      1.813403920

Rotational constants in cm-1:             0.041893             0.007279             0.006843
Rotational constants in MHz :          1255.913912           218.211347           205.147019

                             ****ORCA TERMINATED NORMALLY****
TOTAL RUN TIME: 0 days 0 hours 0 minutes 25 seconds 893 msec
