                         Program Version 6.0.0  -   RELEASE  -
|  1> ! pbe def2-sv(p) def2/J RI DEFGRID1 loosescf d4 GCP(DFT/SV(P)) printgap
|  2> %output
|  3>     printlevel normal
|  4> end
|  5> * xyz 0 1
|  6> C -3.4519679889 -0.9071651612 0.3797015217
|  7> C -2.1124229036 -0.2211714113 0.6148590903
|  8> C -1.2698910285 -0.1956831189 -0.6693296651
|  9> C 0.027789109 0.51635094 -0.3977691822
| 10> O 0.2224110122 1.6991261126 -0.5953821792
| 11> O 0.9286821696 -0.3031058245 0.1224936097
| 12> C 2.2255886675 0.2070872071 0.4779530391
| 13> C 3.285066525 -0.7876150743 0.0372000335
| 14> H -4.0327887569 -0.9179235487 1.2978892866
| 15> H -4.0208810243 -0.380957361 -0.3824403424
| 16> H -3.3017333301 -1.9326659619 0.0527667565
| 17> H -1.5576379901 -0.7497907332 1.3921043796
| 18> H -2.2756881632 0.8043787887 0.9528706085
| 19> H -1.8051720989 0.3412736322 -1.4518411336
| 20> H -1.0580891389 -1.2155714534 -0.9875599484
| 21> H 2.3575114494 1.182585322 -0.0004484255
| 22> H 2.234593553 0.3360955081 1.5640108545
| 23> H 3.2671969865 -0.9044785106 -1.0428823128
| 24> H 4.2625799313 -0.4268758984 0.3398418809
| 25> H 3.0999720555 -1.7535491086 0.497741743
| 26> *
| 27>
| 28>                          ****END OF INPUT****

CARTESIAN COORDINATES (ANGSTROEM)
---------------------------------
  C     -3.451968   -0.907165    0.379702
  C     -2.112423   -0.221171    0.614859
  C     -1.269891   -0.195683   -0.669330
  C      0.027789    0.516351   -0.397769
  O      0.222411    1.699126   -0.595382
  O      0.928682   -0.303106    0.122494
  C      2.225589    0.207087    0.477953
  C      3.285067   -0.787615    0.037200
  H     -4.032789   -0.917924    1.297889
  H     -4.020881   -0.380957   -0.382440
  H     -3.301733   -1.932666    0.052767
  H     -1.557638   -0.749791    1.392104
  H     -2.275688    0.804379    0.952871
  H     -1.805172    0.341274   -1.451841
  H     -1.058089   -1.215571   -0.987560
  H      2.357511    1.182585   -0.000448
  H      2.234594    0.336096    1.564011
  H      3.267197   -0.904479   -1.042882
  H      4.262580   -0.426876    0.339842
  H      3.099972   -1.753549    0.497742

 Total Charge           Charge          ....    0
 Multiplicity           Mult            ....    1
 Number of Electrons    NEL             ....   64
 Basis Dimension        Dim             ....  136

ORBITAL ENERGIES
----------------

  NO   OCC          E(Eh)            E(eV)
   0   2.0000     -18.796152      -511.4693
   1   2.0000     -18.727691      -509.6064
   2   2.0000     -10.002626      -272.1853
   3   2.0000      -9.944603      -270.6064
   4   2.0000      -9.895725      -269.2764
   5   2.0000      -9.895345      -269.2660
   6   2.0000      -9.888965      -269.0924
   7   2.0000      -9.880508      -268.8623
   8   2.0000      -1.002210       -27.2715
   9   2.0000      -0.905142       -24.6302
  10   2.0000      -0.729879       -19.8610
  11   2.0000      -0.699093       -19.0233
  12   2.0000      -0.639546       -17.4029
  13   2.0000      -0.582459       -15.8495
  14   2.0000      -0.534001       -14.5309
  15   2.0000      -0.504003       -13.7146
  16   2.0000      -0.451551       -12.2873
  17   2.0000      -0.433141       -11.7864
  18   2.0000      -0.423457       -11.5228
  19   2.0000      -0.398686       -10.8488
  20   2.0000      -0.387875       -10.5546
  21   2.0000      -0.373908       -10.1745
  22   2.0000      -0.360955        -9.8221
  23   2.0000      -0.345161        -9.3923
  24   2.0000      -0.338834        -9.2201
  25   2.0000      -0.336035        -9.1440
  26   2.0000      -0.313447        -8.5293
  27   2.0000      -0.299274        -8.1437
  28   2.0000      -0.298060        -8.1106
  29   2.0000      -0.288989        -7.8638
  30   2.0000      -0.252256        -6.8642
  31   2.0000      -0.212937        -5.7943
  32   0.0000      -0.016283        -0.4431
  33   0.0000       0.039844         1.0842
  34   0.0000       0.048370         1.3162
  35   0.0000       0.076088         2.0705
  36   0.0000       0.078344         2.1319

MULLIKEN ATOMIC CHARGES
-----------------------
   0 C :   -0.242835
   1 C :   -0.240526
   2 C :   -0.116707
   3 C :    0.108791
   4 O :   -0.209141
   5 O :   -0.246540
   6 C :   -0.024959
   7 C :   -0.284067
   8 H :    0.107000
   9 H :    0.101387
  10 H :    0.098722
  11 H :    0.097920
  12 H :    0.103416
  13 H :    0.097752
  14 H :    0.093522
  15 H :    0.116061
  16 H :    0.102030
  17 H :    0.113555
  18 H :    0.111262
  19 H :    0.113358
Sum of atomic charges:   -0.0000000

LOEWDIN ATOMIC CHARGES
----------------------
   0 C :   -0.338836
   1 C :   -0.225344
   2 C :   -0.241555
   3 C :    0.035508
   4 O :   -0.173655
   5 O :   -0.070690
   6 C :   -0.112985
   7 C :   -0.351245
   8 H :    0.121790
   9 H :    0.119308
  10 H :    0.118172
  11 H :    0.118617
  12 H :    0.122114
  13 H :    0.133103
  14 H :    0.129269
  15 H :    0.120316
  16 H :    0.115413
  17 H :    0.126135
  18 H :    0.129639
  19 H :    0.124927

  Mayer bond orders larger than 0.100000
B(  0-C ,  1-C ) :   1.1575 B(  0-C ,  8-H ) :   0.9517 B(  0-C ,  9-H ) :   0.9533
B(  0-C , 10-H ) :   0.9534 B(  1-C ,  2-C ) :   1.1288 B(  1-C , 11-H ) :   0.9267
B(  1-C , 12-H ) :   0.9270 B(  2-C ,  3-C ) :   1.0205 B(  2-C , 13-H ) :   0.9043
B(  2-C , 14-H ) :   0.8995 B(  3-C ,  4-O ) :   2.0659 B(  3-C ,  5-O ) :   1.1986
B(  5-O ,  6-C ) :   0.9119 B(  6-C ,  7-C ) :   1.1639 B(  6-C , 15-H ) :   0.9087
B(  6-C , 16-H ) :   0.9354 B(  7-C , 17-H ) :   0.9519 B(  7-C , 18-H ) :   0.9449
B(  7-C , 19-H ) :   0.9495

Dispersion correction           -0.014383664
FINAL SINGLE POINT ENERGY      -385.456757369903

DIPOLE MOMENT
-------------

Method             : SCF
Type of density    : Electron Density
Multiplicity       :   1
Irrep              :   0
Energy             :  -385.5317684251544392 Eh
Relativity type    :
Basis              : AO
                                X                 Y                 Z
Electronic contribution:      2.813025170       4.528128013      -1.790053747
Nuclear contribution   :     -2.638071241      -5.249431612       2.087026050
                        -----------------------------------------
Total Dipole Moment    :      0.174953929      -0.721303600       0.296972303
                        -----------------------------------------
Magnitude (a.u.)       :      0.799424986
Magnitude (Debye)      :      2.031976832

Rotational constants in cm-1:             0.146517             0.030550             0.027324
Rotational constants in MHz :          4392.465100           915.862958           819.141299

                             ****ORCA TERMINATED NORMALLY****
TOTAL RUN TIME: 0 days 0 hours 0 minutes 11 seconds 98 msec
