                         Program Version 6.0.0  -   RELEASE  -
|  1> ! pbe def2-sv(p) def2/J RI DEFGRID1 loosescf d4 GCP(DFT/SV(P)) printgap
|  2> %output
|  3>     printlevel normal
|  4> end
|  5> * xyz 0 1
|  6> C -2.2681248269 -1.2760585113 0.6949485382
|  7> C -2.5133388248 0.029197147 -0.0522473675
|  8> C -1.3376994309 0.3848789221 -0.9698268267
|  9> C -0.1037143835 0.6791006857 -0.1567179184
| 10> O -0.0199597776 1.5433166614 0.6925748837
| 11> O 0.8973001278 -0.1308760829 -0.4690134301
| 12> C 2.1403164637 0.0243678461 0.2363927783
| 13> C 3.0131233367 -1.1772108512 -0.0704499785
| 14> H -3.1269385871 -1.5262101959 1.3119918527
| 15> H -2.0940746268 -2.0899790622 -0.0046698911
| 16> H -1.3973616789 -1.1862711684 1.3418346023
| 17> H -2.6559354623 0.8416630393 0.6628587442
| 18> H -3.4157690365 -0.0584746229 -0.6576620786
| 19> H -1.581715263 1.2837409807 -1.537832445
| 20> H -1.1170254635 -0.4328344667 -1.6545779811
| 21> H 2.607200805 0.9578662704 -0.0941301721
| 22> H 1.923481991 0.1114646504 1.3063213234
| 23> H 3.1910506948 -1.2421601033 -1.1396501193
| 24> H 3.9615650702 -1.0736029406 0.4460976536
| 25> H 2.5229603948 -2.0886369275 0.2589830336
| 26> *
| 27>
| 28>                          ****END OF INPUT****

CARTESIAN COORDINATES (ANGSTROEM)
---------------------------------
  C     -2.268125   -1.276059    0.694949
  C     -2.513339    0.029197   -0.052247
  C     -1.337699    0.384879   -0.969827
  C     -0.103714    0.679101   -0.156718
  O     -0.019960    1.543317    0.692575
  O      0.897300   -0.130876   -0.469013
  C      2.140316    0.024368    0.236393
  C      3.013123   -1.177211   -0.070450
  H     -3.126939   -1.526210    1.311992
  H     -2.094075   -2.089979   -0.004670
  H     -1.397362   -1.186271    1.341835
  H     -2.655935    0.841663    0.662859
  H     -3.415769   -0.058475   -0.657662
  H     -1.581715    1.283741   -1.537832
  H     -1.117025   -0.432834   -1.654578
  H      2.607201    0.957866   -0.094130
  H      1.923482    0.111465    1.306321
  H      3.191051   -1.242160   -1.139650
  H      3.961565   -1.073603    0.446098
  H      2.522960   -2.088637    0.258983

 Total Charge           Charge          ....    0
 Multiplicity           Mult            ....    1
 Number of Electrons    NEL             ....   64
 Basis Dimension        Dim             ....  136

ORBITAL ENERGIES
----------------

  NO   OCC          E(Eh)            E(eV)
   0   2.0000     -18.798001      -511.5196
   1   2.0000     -18.729398      -509.6528
   2   2.0000     -10.003110      -272.1985
   3   2.0000      -9.946755      -270.6650
   4   2.0000      -9.895489      -269.2700
   5   2.0000      -9.891599      -269.1641
   6   2.0000      -9.889656      -269.1112
   7   2.0000      -9.877588      -268.7828
   8   2.0000      -1.004289       -27.3281
   9   2.0000      -0.906456       -24.6659
  10   2.0000      -0.728032       -19.8108
  11   2.0000      -0.700040       -19.0491
  12   2.0000      -0.636447       -17.3186
  13   2.0000      -0.584078       -15.8936
  14   2.0000      -0.531394       -14.4600
  15   2.0000      -0.503219       -13.6933
  16   2.0000      -0.449159       -12.2222
  17   2.0000      -0.444209       -12.0875
  18   2.0000      -0.415380       -11.3031
  19   2.0000      -0.401957       -10.9378
  20   2.0000      -0.387817       -10.5530
  21   2.0000      -0.364583        -9.9208
  22   2.0000      -0.362993        -9.8775
  23   2.0000      -0.352241        -9.5850
  24   2.0000      -0.346298        -9.4232
  25   2.0000      -0.322749        -8.7824
  26   2.0000      -0.309398        -8.4192
  27   2.0000      -0.298054        -8.1105
  28   2.0000      -0.296229        -8.0608
  29   2.0000      -0.290819        -7.9136
  30   2.0000      -0.255785        -6.9603
  31   2.0000      -0.215313        -5.8590
  32   0.0000      -0.019313        -0.5255
  33   0.0000       0.035068         0.9543
  34   0.0000       0.053239         1.4487
  35   0.0000       0.075301         2.0490
  36   0.0000       0.077650         2.1130

MULLIKEN ATOMIC CHARGES
-----------------------
   0 C :   -0.288391
   1 C :   -0.205309
   2 C :   -0.115577
   3 C :    0.087607
   4 O :   -0.215758
   5 O :   -0.236915
   6 C :   -0.030947
   7 C :   -0.273132
   8 H :    0.107991
   9 H :    0.099409
  10 H :    0.115675
  11 H :    0.108784
  12 H :    0.092772
  13 H :    0.111377
  14 H :    0.091698
  15 H :    0.103756
  16 H :    0.107546
  17 H :    0.114269
  18 H :    0.110841
  19 H :    0.114303
Sum of atomic charges:   -0.0000000

LOEWDIN ATOMIC CHARGES
----------------------
   0 C :   -0.342631
   1 C :   -0.226431
   2 C :   -0.246335
   3 C :    0.033960
   4 O :   -0.174015
   5 O :   -0.068208
   6 C :   -0.109672
   7 C :   -0.350646
   8 H :    0.121699
   9 H :    0.117640
  10 H :    0.119934
  11 H :    0.124688
  12 H :    0.118087
  13 H :    0.141066
  14 H :    0.125837
  15 H :    0.116001
  16 H :    0.116496
  17 H :    0.126287
  18 H :    0.130045
  19 H :    0.126197

  Mayer bond orders larger than 0.100000
B(  0-C ,  1-C ) :   1.1544 B(  0-C ,  8-H ) :   0.9518 B(  0-C ,  9-H ) :   0.9538
B(  0-C , 10-H ) :   0.9485 B(  1-C ,  2-C ) :   1.1125 B(  1-C , 11-H ) :   0.9206
B(  1-C , 12-H ) :   0.9287 B(  2-C ,  3-C ) :   1.0239 B(  2-C , 13-H ) :   0.8944
B(  2-C , 14-H ) :   0.9100 B(  3-C ,  4-O ) :   2.0429 B(  3-C ,  5-O ) :   1.2147
B(  5-O ,  6-C ) :   0.9123 B(  6-C ,  7-C ) :   1.1512 B(  6-C , 15-H ) :   0.9350
B(  6-C , 16-H ) :   0.9259 B(  7-C , 17-H ) :   0.9489 B(  7-C , 18-H ) :   0.9447
B(  7-C , 19-H ) :   0.9513

Dispersion correction           -0.014951623
FINAL SINGLE POINT ENERGY      -385.458218093305

DIPOLE MOMENT
-------------

Method             : SCF
Type of density    : Electron Density
Multiplicity       :   1
Irrep              :   0
Energy             :  -385.5331301766585170 Eh
Relativity type    :
Basis              : AO
                                X                 Y                 Z
Electronic contribution:      1.344981219       5.486743383      -0.581004564
Nuclear contribution   :     -1.096430153      -6.080361815       0.228066464
                        -----------------------------------------
Total Dipole Moment    :      0.248551067      -0.593618433      -0.352938100
                        -----------------------------------------
Magnitude (a.u.)       :      0.733979413
Magnitude (Debye)      :      1.865627404

Rotational constants in cm-1:             0.119156             0.036504             0.032479
Rotational constants in MHz :          3572.194884          1094.364828           973.700669

                             ****ORCA TERMINATED NORMALLY****
TOTAL RUN TIME: 0 days 0 hours 0 minutes 10 seconds 757 msec
