                         Program Version 6.0.0  -   RELEASE  -
|  1> ! r2scan-3c def2/J RI DEFGRID2 scfconv6 printgap
|  2> %output
|  3>     printlevel normal
|  4> end
|  5> * xyz 0 1
|  6> C -2.2360161653 -1.445154391 -0.2338839515
|  7> C -2.5047385924 0.0306445849 0.0341247133
|  8> C -1.3442832077 0.6896144288 0.7899869105
|  9> C -0.1052766887 0.7098342806 -0.066963447
| 10> O -0.0082160959 1.2792240069 -1.1354655733
| 11> O 0.8830625422 0.0151897118 0.477043845
| 12> C 2.1264405465 -0.0675307294 -0.2396533692
| 13> C 2.9964879777 -1.1077899556 0.4389169087
| 14> H -3.0863142877 -1.89959519 -0.7352324534
| 15> H -1.3610366385 -1.5637671883 -0.8702592449
| 16> H -2.057492713 -1.9762334336 0.6979325765
| 17> H -3.4129589616 0.1362161311 0.6279269923
| 18> H -2.648867778 0.556883615 -0.9114909926
| 19> H -1.1240158817 0.1490521287 1.7094427541
| 20> H -1.6053963867 1.7228120727 1.0223555537
| 21> H 1.9099178783 -0.3299807522 -1.2806506877
| 22> H 2.5952411662 0.9218235238 -0.2283839391
| 23> H 3.1764115271 -0.8237828202 1.4713825449
| 24> H 2.5029402361 -2.0750146195 0.4227768374
| 25> H 3.9441510365 -1.1803216638 -0.0842763603
| 26> *
| 27>
| 28>                          ****END OF INPUT****

CARTESIAN COORDINATES (ANGSTROEM)
---------------------------------
  C     -2.236016   -1.445154   -0.233884
  C     -2.504739    0.030645    0.034125
  C     -1.344283    0.689614    0.789987
  C     -0.105277    0.709834   -0.066963
  O     -0.008216    1.279224   -1.135466
  O      0.883063    0.015190    0.477044
  C      2.126441   -0.067531   -0.239653
  C      2.996488   -1.107790    0.438917
  H     -3.086314   -1.899595   -0.735232
  H     -1.361037   -1.563767   -0.870259
  H     -2.057493   -1.976233    0.697933
  H     -3.412959    0.136216    0.627927
  H     -2.648868    0.556884   -0.911491
  H     -1.124016    0.149052    1.709443
  H     -1.605396    1.722812    1.022356
  H      1.909918   -0.329981   -1.280651
  H      2.595241    0.921824   -0.228384
  H      3.176412   -0.823783    1.471383
  H      2.502940   -2.075015    0.422777
  H      3.944151   -1.180322   -0.084276

 Total Charge           Charge          ....    0
 Multiplicity           Mult            ....    1
 Number of Electrons    NEL             ....   64
 Basis Dimension        Dim             ....  222

ORBITAL ENERGIES
----------------

  NO   OCC          E(Eh)            E(eV)
   0   2.0000     -18.997223      -516.9407
   1   2.0000     -18.926176      -515.0074
   2   2.0000     -10.150039      -276.1966
   3   2.0000     -10.091423      -274.6016
   4   2.0000     -10.040016      -273.2027
   5   2.0000     -10.035029      -273.0670
   6   2.0000     -10.032327      -272.9935
   7   2.0000     -10.020129      -272.6616
   8   2.0000      -1.071828       -29.1659
   9   2.0000      -0.973481       -26.4898
  10   2.0000      -0.773878       -21.0583
  11   2.0000      -0.743104       -20.2209
  12   2.0000      -0.677717       -18.4416
  13   2.0000      -0.618321       -16.8254
  14   2.0000      -0.565593       -15.3906
  15   2.0000      -0.529926       -14.4200
  16   2.0000      -0.469763       -12.7829
  17   2.0000      -0.464223       -12.6321
  18   2.0000      -0.437138       -11.8951
  19   2.0000      -0.422851       -11.5063
  20   2.0000      -0.408350       -11.1118
  21   2.0000      -0.380225       -10.3464
  22   2.0000      -0.378419       -10.2973
  23   2.0000      -0.366831        -9.9820
  24   2.0000      -0.361301        -9.8315
  25   2.0000      -0.335269        -9.1231
  26   2.0000      -0.323956        -8.8153
  27   2.0000      -0.310341        -8.4448
  28   2.0000      -0.308581        -8.3969
  29   2.0000      -0.306207        -8.3323
  30   2.0000      -0.271270        -7.3816
  31   2.0000      -0.233749        -6.3606
  32   0.0000      -0.015047        -0.4094
  33   0.0000       0.073174         1.9912
  34   0.0000       0.096224         2.6184
  35   0.0000       0.106686         2.9031
  36   0.0000       0.124610         3.3908

MULLIKEN ATOMIC CHARGES
-----------------------
   0 C :   -0.492371
   1 C :   -0.222800
   2 C :   -0.302316
   3 C :    0.334473
   4 O :   -0.419215
   5 O :   -0.156885
   6 C :   -0.155122
   7 C :   -0.441074
   8 H :    0.148602
   9 H :    0.155291
  10 H :    0.147698
  11 H :    0.145617
  12 H :    0.162210
  13 H :    0.163546
  14 H :    0.164756
  15 H :    0.163953
  16 H :    0.151559
  17 H :    0.152180
  18 H :    0.152606
  19 H :    0.147289
Sum of atomic charges:    0.0000000

LOEWDIN ATOMIC CHARGES
----------------------
   0 C :   -0.416915
   1 C :   -0.291532
   2 C :   -0.232581
   3 C :    0.350806
   4 O :   -0.430276
   5 O :   -0.599027
   6 C :    0.032840
   7 C :   -0.386744
   8 H :    0.152621
   9 H :    0.155255
  10 H :    0.151279
  11 H :    0.152972
  12 H :    0.166403
  13 H :    0.176236
  14 H :    0.180672
  15 H :    0.182760
  16 H :    0.177150
  17 H :    0.159292
  18 H :    0.159309
  19 H :    0.159480

  Mayer bond orders larger than 0.100000
B(  0-C ,  1-C ) :   0.9029 B(  0-C ,  8-H ) :   0.9688 B(  0-C ,  9-H ) :   0.9727
B(  0-C , 10-H ) :   0.9812 B(  1-C ,  2-C ) :   0.8856 B(  1-C , 11-H ) :   0.9659
B(  1-C , 12-H ) :   0.9707 B(  2-C ,  3-C ) :   0.9317 B(  2-C , 13-H ) :   1.0089
B(  2-C , 14-H ) :   0.9434 B(  3-C ,  4-O ) :   1.8152 B(  3-C ,  5-O ) :   1.0673
B(  5-O ,  6-C ) :   0.8037 B(  6-C ,  7-C ) :   0.9402 B(  6-C , 15-H ) :   0.9587
B(  6-C , 16-H ) :   0.9480 B(  7-C , 17-H ) :   0.9699 B(  7-C , 18-H ) :   0.9740
B(  7-C , 19-H ) :   0.9684

Dispersion correction           -0.005075961
FINAL SINGLE POINT ENERGY      -386.236380028615

DIPOLE MOMENT
-------------

Method             : SCF
Type of density    : Electron Density
Multiplicity       :   1
Irrep              :   0
Energy             :  -386.2429533545795834 Eh
Relativity type    :
Basis              : AO
                                X                 Y                 Z
Electronic contribution:      1.297101065       5.419621391      -1.125197525
Nuclear contribution   :     -1.082262951      -5.949336628       1.717892911
                        -----------------------------------------
Total Dipole Moment    :      0.214838114      -0.529715238       0.592695386
                        -----------------------------------------
Magnitude (a.u.)       :      0.823432735
Magnitude (Debye)      :      2.092999679

Rotational constants in cm-1:             0.117312             0.036997             0.032610
Rotational constants in MHz :          3516.927240          1109.127573           977.621042

                             ****ORCA TERMINATED NORMALLY****
TOTAL RUN TIME: 0 days 0 hours 0 minutes 33 seconds 350 msec
