                         Program Version 6.0.0  -   RELEASE  -
|  1> ! r2scan-3c def2/J RI DEFGRID2 scfconv6 printgap
|  2> %output
|  3>     printlevel normal
|  4> end
|  5> %cpcm
|  6>     smd true
|  7>     smdsolvent "water"
|  8> end
|  9> * xyz 0 1
| 10> C -2.2360161653 -1.445154391 -0.2338839515
| 11> C -2.5047385924 0.0306445849 0.0341247133
| 12> C -1.3442832077 0.6896144288 0.7899869105
| 13> C -0.1052766887 0.7098342806 -0.066963447
| 14> O -0.0082160959 1.2792240069 -1.1354655733
| 15> O 0.8830625422 0.0151897118 0.477043845
| 16> C 2.1264405465 -0.0675307294 -0.2396533692
| 17> C 2.9964879777 -1.1077899556 0.4389169087
| 18> H -3.0863142877 -1.89959519 -0.7352324534
| 19> H -1.3610366385 -1.5637671883 -0.8702592449
| 20> H -2.057492713 -1.9762334336 0.6979325765
| 21> H -3.4129589616 0.1362161311 0.6279269923
| 22> H -2.648867778 0.556883615 -0.9114909926
| 23> H -1.1240158817 0.1490521287 1.7094427541
| 24> H -1.6053963867 1.7228120727 1.0223555537
| 25> H 1.9099178783 -0.3299807522 -1.2806506877
| 26> H 2.5952411662 0.9218235238 -0.2283839391
| 27> H 3.1764115271 -0.8237828202 1.4713825449
| 28> H 2.5029402361 -2.0750146195 0.4227768374
| 29> H 3.9441510365 -1.1803216638 -0.0842763603
| 30> *
| 31>
| 32>                          ****END OF INPUT****

CARTESIAN COORDINATES (ANGSTROEM)
---------------------------------
  C     -2.236016   -1.445154   -0.233884
  C     -2.504739    0.030645    0.034125
  C     -1.344283    0.689614    0.789987
  C     -0.105277    0.709834   -0.066963
  O     -0.008216    1.279224   -1.135466
  O      0.883063    0.015190    0.477044
  C      2.126441   -0.067531   -0.239653
  C      2.996488   -1.107790    0.438917
  H     -3.086314   -1.899595   -0.735232
  H     -1.361037   -1.563767   -0.870259
  H     -2.057493   -1.976233    0.697933
  H     -3.412959    0.136216    0.627927
  H     -2.648868    0.556884   -0.911491
  H     -1.124016    0.149052    1.709443
  H     -1.605396    1.722812    1.022356
  H      1.909918   -0.329981   -1.280651
  H      2.595241    0.921824   -0.228384
  H      3.176412   -0.823783    1.471383
  H      2.502940   -2.075015    0.422777
  H      3.944151   -1.180322   -0.084276

 Total Charge           Charge          ....    0
 Multiplicity           Mult            ....    1
 Number of Electrons    NEL             ....   64
 Basis Dimension        Dim             ....  222

ORBITAL ENERGIES
----------------

  NO   OCC          E(Eh)            E(eV)
   0   2.0000     -19.003579      -517.1137
   1   2.0000     -18.943319      -515.4739
   2   2.0000     -10.161767      -276.5157
   3   2.0000     -10.083855      -274.3956
   4   2.0000     -10.035106      -273.0691
   5   2.0000     -10.028919      -272.9008
   6   2.0000     -10.018891      -272.6279
   7   2.0000     -10.011738      -272.4332
   8   2.0000      -1.079903       -29.3856
   9   2.0000      -0.988371       -26.8949
  10   2.0000      -0.769946       -20.9513
  11   2.0000      -0.735583       -20.0162
  12   2.0000      -0.672006       -18.2862
  13   2.0000      -0.611986       -16.6530
  14   2.0000      -0.559236       -15.2176
  15   2.0000      -0.529252       -14.4017
  16   2.0000      -0.472245       -12.8504
  17   2.0000      -0.463889       -12.6230
  18   2.0000      -0.445830       -12.1316
  19   2.0000      -0.419767       -11.4225
  20   2.0000      -0.405752       -11.0411
  21   2.0000      -0.377690       -10.2775
  22   2.0000      -0.369214       -10.0468
  23   2.0000      -0.361465        -9.8360
  24   2.0000      -0.356001        -9.6873
  25   2.0000      -0.330465        -8.9924
  26   2.0000      -0.320375        -8.7178
  27   2.0000      -0.304835        -8.2950
  28   2.0000      -0.304105        -8.2751
  29   2.0000      -0.303596        -8.2613
  30   2.0000      -0.278176        -7.5696
  31   2.0000      -0.251419        -6.8415
  32   0.0000      -0.023883        -0.6499
  33   0.0000       0.076052         2.0695
  34   0.0000       0.104780         2.8512
  35   0.0000       0.116105         3.1594
  36   0.0000       0.132245         3.5986

MULLIKEN ATOMIC CHARGES
-----------------------
   0 C :   -0.531132
   1 C :   -0.226446
   2 C :   -0.319707
   3 C :    0.380322
   4 O :   -0.507223
   5 O :   -0.174275
   6 C :   -0.157187
   7 C :   -0.489755
   8 H :    0.161581
   9 H :    0.163726
  10 H :    0.163532
  11 H :    0.164851
  12 H :    0.156843
  13 H :    0.179717
  14 H :    0.190936
  15 H :    0.172168
  16 H :    0.172694
  17 H :    0.164635
  18 H :    0.165634
  19 H :    0.169086
Sum of atomic charges:   -0.0000000

LOEWDIN ATOMIC CHARGES
----------------------
   0 C :   -0.424051
   1 C :   -0.290533
   2 C :   -0.229620
   3 C :    0.360934
   4 O :   -0.492552
   5 O :   -0.600083
   6 C :    0.035464
   7 C :   -0.389656
   8 H :    0.156266
   9 H :    0.156392
  10 H :    0.156179
  11 H :    0.160589
  12 H :    0.162941
  13 H :    0.184125
  14 H :    0.189837
  15 H :    0.186197
  16 H :    0.184132
  17 H :    0.162612
  18 H :    0.162548
  19 H :    0.168279

  Mayer bond orders larger than 0.100000
B(  0-C ,  1-C ) :   0.8929 B(  0-C ,  8-H ) :   0.9653 B(  0-C ,  9-H ) :   0.9702
B(  0-C , 10-H ) :   0.9780 B(  1-C ,  2-C ) :   0.8730 B(  1-C , 11-H ) :   0.9617
B(  1-C , 12-H ) :   0.9741 B(  2-C ,  3-C ) :   0.9340 B(  2-C , 13-H ) :   0.9982
B(  2-C , 14-H ) :   0.9367 B(  3-C ,  4-O ) :   1.7433 B(  3-C ,  5-O ) :   1.0943
B(  5-O ,  6-C ) :   0.7905 B(  6-C ,  7-C ) :   0.9414 B(  6-C , 15-H ) :   0.9521
B(  6-C , 16-H ) :   0.9394 B(  7-C , 17-H ) :   0.9675 B(  7-C , 18-H ) :   0.9725
B(  7-C , 19-H ) :   0.9618

Dispersion correction           -0.005075961
FINAL SINGLE POINT ENERGY      -386.242104542236

DIPOLE MOMENT
-------------

Method             : SCF
Type of density    : Electron Density
Multiplicity       :   1
Irrep              :   0
Energy             :  -386.2486778682008435 Eh
Relativity type    :
Basis              : AO
                                X                 Y                 Z
Electronic contribution:      1.349144174       5.232096150      -0.840908928
Nuclear contribution   :     -1.082262951      -5.949336628       1.717892911
                        -----------------------------------------
Total Dipole Moment    :      0.266881222      -0.717240478       0.876983983
                        -----------------------------------------
Magnitude (a.u.)       :      1.163941750
Magnitude (Debye)      :      2.958504813

Rotational constants in cm-1:             0.117312             0.036997             0.032610
Rotational constants in MHz :          3516.927240          1109.127573           977.621042

                             ****ORCA TERMINATED NORMALLY****
TOTAL RUN TIME: 0 days 0 hours 0 minutes 38 seconds 398 msec
