                         Program Version 6.0.0  -   RELEASE  -
|  1> ! r2scan-3c def2/J RI DEFGRID2 scfconv6 printgap
|  2> %output
|  3>     printlevel normal
|  4> end
|  5> * xyz 0 1
|  6> C -2.5827775834 -1.2727127554 -0.0149351173
|  7> C -2.5217756365 0.2498963668 -0.0031982842
|  8> C -1.249979198 0.758556889 0.6842304301
|  9> C -0.0277941225 0.3888552875 -0.1166581985
| 10> O 0.1529345777 0.6846469904 -1.2797082014
| 11> O 0.8320330651 -0.319475891 0.6048259596
| 12> C 2.0666801463 -0.7335464831 -0.003502925
| 13> C 3.147194973 0.3199691183 0.1858499946
| 14> H -1.7442742545 -1.6828653782 -0.5749150793
| 15> H -2.5431292005 -1.6645578987 0.9985744189
| 16> H -3.5036601146 -1.6113030291 -0.4820480657
| 17> H -3.3890617516 0.6475507739 0.5243506427
| 18> H -2.5391132036 0.6268295613 -1.0276139618
| 19> H -1.151871072 0.3388285093 1.6845013369
| 20> H -1.283549613 1.8473803958 0.7470544432
| 21> H 2.3264569917 -1.6638756263 0.5026405349
| 22> H 1.8875448573 -0.9161473956 -1.0675590012
| 23> H 2.8699203683 1.2354139 -0.332161967
| 24> H 3.2766459494 0.5364632561 1.2427586708
| 25> H 4.0829874785 -0.046689355 -0.2230921428
| 26> *
| 27>
| 28>                          ****END OF INPUT****

CARTESIAN COORDINATES (ANGSTROEM)
---------------------------------
  C     -2.582778   -1.272713   -0.014935
  C     -2.521776    0.249896   -0.003198
  C     -1.249979    0.758557    0.684230
  C     -0.027794    0.388855   -0.116658
  O      0.152935    0.684647   -1.279708
  O      0.832033   -0.319476    0.604826
  C      2.066680   -0.733546   -0.003503
  C      3.147195    0.319969    0.185850
  H     -1.744274   -1.682865   -0.574915
  H     -2.543129   -1.664558    0.998574
  H     -3.503660   -1.611303   -0.482048
  H     -3.389062    0.647551    0.524351
  H     -2.539113    0.626830   -1.027614
  H     -1.151871    0.338829    1.684501
  H     -1.283550    1.847380    0.747054
  H      2.326457   -1.663876    0.502641
  H      1.887545   -0.916147   -1.067559
  H      2.869920    1.235414   -0.332162
  H      3.276646    0.536463    1.242759
  H      4.082987   -0.046689   -0.223092

 Total Charge           Charge          ....    0
 Multiplicity           Mult            ....    1
 Number of Electrons    NEL             ....   64
 Basis Dimension        Dim             ....  222

ORBITAL ENERGIES
----------------

  NO   OCC          E(Eh)            E(eV)
   0   2.0000     -18.996716      -516.9269
   1   2.0000     -18.927210      -515.0356
   2   2.0000     -10.151189      -276.2279
   3   2.0000     -10.090497      -274.5764
   4   2.0000     -10.039946      -273.2008
   5   2.0000     -10.033956      -273.0378
   6   2.0000     -10.029101      -272.9057
   7   2.0000     -10.019169      -272.6355
   8   2.0000      -1.070958       -29.1422
   9   2.0000      -0.975072       -26.5331
  10   2.0000      -0.772861       -21.0306
  11   2.0000      -0.739298       -20.1173
  12   2.0000      -0.677561       -18.4374
  13   2.0000      -0.624524       -16.9942
  14   2.0000      -0.565472       -15.3873
  15   2.0000      -0.519867       -14.1463
  16   2.0000      -0.473819       -12.8933
  17   2.0000      -0.455078       -12.3833
  18   2.0000      -0.440306       -11.9813
  19   2.0000      -0.417585       -11.3631
  20   2.0000      -0.412480       -11.2241
  21   2.0000      -0.390527       -10.6268
  22   2.0000      -0.375757       -10.2249
  23   2.0000      -0.365779        -9.9534
  24   2.0000      -0.351411        -9.5624
  25   2.0000      -0.344295        -9.3687
  26   2.0000      -0.317176        -8.6308
  27   2.0000      -0.310159        -8.4399
  28   2.0000      -0.308781        -8.4023
  29   2.0000      -0.302601        -8.2342
  30   2.0000      -0.270743        -7.3673
  31   2.0000      -0.235892        -6.4189
  32   0.0000      -0.015112        -0.4112
  33   0.0000       0.074781         2.0349
  34   0.0000       0.093689         2.5494
  35   0.0000       0.109707         2.9853
  36   0.0000       0.116721         3.1761

MULLIKEN ATOMIC CHARGES
-----------------------
   0 C :   -0.492463
   1 C :   -0.221037
   2 C :   -0.300746
   3 C :    0.350622
   4 O :   -0.428819
   5 O :   -0.173256
   6 C :   -0.142279
   7 C :   -0.464798
   8 H :    0.156336
   9 H :    0.146676
  10 H :    0.148451
  11 H :    0.144803
  12 H :    0.162107
  13 H :    0.164615
  14 H :    0.164565
  15 H :    0.147419
  16 H :    0.170287
  17 H :    0.168977
  18 H :    0.151689
  19 H :    0.146854
Sum of atomic charges:    0.0000000

LOEWDIN ATOMIC CHARGES
----------------------
   0 C :   -0.416655
   1 C :   -0.292562
   2 C :   -0.231806
   3 C :    0.354938
   4 O :   -0.438514
   5 O :   -0.596227
   6 C :    0.026202
   7 C :   -0.389553
   8 H :    0.155732
   9 H :    0.150822
  10 H :    0.152667
  11 H :    0.152825
  12 H :    0.167114
  13 H :    0.176936
  14 H :    0.181069
  15 H :    0.177503
  16 H :    0.189177
  17 H :    0.164086
  18 H :    0.157149
  19 H :    0.159098

  Mayer bond orders larger than 0.100000
B(  0-C ,  1-C ) :   0.9041 B(  0-C ,  8-H ) :   0.9728 B(  0-C ,  9-H ) :   0.9815
B(  0-C , 10-H ) :   0.9688 B(  1-C ,  2-C ) :   0.8866 B(  1-C , 11-H ) :   0.9660
B(  1-C , 12-H ) :   0.9689 B(  2-C ,  3-C ) :   0.9392 B(  2-C , 13-H ) :   1.0057
B(  2-C , 14-H ) :   0.9375 B(  3-C ,  4-O ) :   1.8307 B(  3-C ,  5-O ) :   1.0483
B(  5-O ,  6-C ) :   0.8170 B(  6-C ,  7-C ) :   0.9408 B(  6-C , 15-H ) :   0.9606
B(  6-C , 16-H ) :   0.9662 B(  7-C , 17-H ) :   0.9715 B(  7-C , 18-H ) :   0.9736
B(  7-C , 19-H ) :   0.9658

Dispersion correction           -0.005138055
FINAL SINGLE POINT ENERGY      -386.236455137570

DIPOLE MOMENT
-------------

Method             : SCF
Type of density    : Electron Density
Multiplicity       :   1
Irrep              :   0
Energy             :  -386.2430533373321282 Eh
Relativity type    :
Basis              : AO
                                X                 Y                 Z
Electronic contribution:      1.753269910       1.921768250      -1.208424494
Nuclear contribution   :     -1.590695118      -2.202065425       1.859280339
                        -----------------------------------------
Total Dipole Moment    :      0.162574792      -0.280297174       0.650855846
                        -----------------------------------------
Magnitude (a.u.)       :      0.727055982
Magnitude (Debye)      :      1.848029441

Rotational constants in cm-1:             0.152182             0.034414             0.032889
Rotational constants in MHz :          4562.307393          1031.704148           985.996919

                             ****ORCA TERMINATED NORMALLY****
TOTAL RUN TIME: 0 days 0 hours 0 minutes 32 seconds 915 msec
