                         Program Version 6.0.0  -   RELEASE  -
|  1> ! r2scan-3c def2/J RI DEFGRID2 scfconv6 printgap
|  2> %output
|  3>     printlevel normal
|  4> end
|  5> %cpcm
|  6>     smd true
|  7>     smdsolvent "water"
|  8> end
|  9> * xyz 0 1
| 10> C -2.5827775834 -1.2727127554 -0.0149351173
| 11> C -2.5217756365 0.2498963668 -0.0031982842
| 12> C -1.249979198 0.758556889 0.6842304301
| 13> C -0.0277941225 0.3888552875 -0.1166581985
| 14> O 0.1529345777 0.6846469904 -1.2797082014
| 15> O 0.8320330651 -0.319475891 0.6048259596
| 16> C 2.0666801463 -0.7335464831 -0.003502925
| 17> C 3.147194973 0.3199691183 0.1858499946
| 18> H -1.7442742545 -1.6828653782 -0.5749150793
| 19> H -2.5431292005 -1.6645578987 0.9985744189
| 20> H -3.5036601146 -1.6113030291 -0.4820480657
| 21> H -3.3890617516 0.6475507739 0.5243506427
| 22> H -2.5391132036 0.6268295613 -1.0276139618
| 23> H -1.151871072 0.3388285093 1.6845013369
| 24> H -1.283549613 1.8473803958 0.7470544432
| 25> H 2.3264569917 -1.6638756263 0.5026405349
| 26> H 1.8875448573 -0.9161473956 -1.0675590012
| 27> H 2.8699203683 1.2354139 -0.332161967
| 28> H 3.2766459494 0.5364632561 1.2427586708
| 29> H 4.0829874785 -0.046689355 -0.2230921428
| 30> *
| 31>
| 32>                          ****END OF INPUT****

CARTESIAN COORDINATES (ANGSTROEM)
---------------------------------
  C     -2.582778   -1.272713   -0.014935
  C     -2.521776    0.249896   -0.003198
  C     -1.249979    0.758557    0.684230
  C     -0.027794    0.388855   -0.116658
  O      0.152935    0.684647   -1.279708
  O      0.832033   -0.319476    0.604826
  C      2.066680   -0.733546   -0.003503
  C      3.147195    0.319969    0.185850
  H     -1.744274   -1.682865   -0.574915
  H     -2.543129   -1.664558    0.998574
  H     -3.503660   -1.611303   -0.482048
  H     -3.389062    0.647551    0.524351
  H     -2.539113    0.626830   -1.027614
  H     -1.151871    0.338829    1.684501
  H     -1.283550    1.847380    0.747054
  H      2.326457   -1.663876    0.502641
  H      1.887545   -0.916147   -1.067559
  H      2.869920    1.235414   -0.332162
  H      3.276646    0.536463    1.242759
  H      4.082987   -0.046689   -0.223092

 Total Charge           Charge          ....    0
 Multiplicity           Mult            ....    1
 Number of Electrons    NEL             ....   64
 Basis Dimension        Dim             ....  222

ORBITAL ENERGIES
----------------

  NO   OCC          E(Eh)            E(eV)
   0   2.0000     -19.002905      -517.0953
   1   2.0000     -18.943195      -515.4706
   2   2.0000     -10.162152      -276.5262
   3   2.0000     -10.082912      -274.3700
   4   2.0000     -10.034829      -273.0616
   5   2.0000     -10.028240      -272.8823
   6   2.0000     -10.018478      -272.6166
   7   2.0000     -10.011525      -272.4274
   8   2.0000      -1.078715       -29.3533
   9   2.0000      -0.988961       -26.9110
  10   2.0000      -0.769115       -20.9287
  11   2.0000      -0.732860       -19.9421
  12   2.0000      -0.672383       -18.2965
  13   2.0000      -0.619520       -16.8580
  14   2.0000      -0.559603       -15.2276
  15   2.0000      -0.518824       -14.1179
  16   2.0000      -0.474123       -12.9015
  17   2.0000      -0.461614       -12.5611
  18   2.0000      -0.440956       -11.9990
  19   2.0000      -0.421248       -11.4627
  20   2.0000      -0.406886       -11.0719
  21   2.0000      -0.386103       -10.5064
  22   2.0000      -0.368964       -10.0400
  23   2.0000      -0.361799        -9.8451
  24   2.0000      -0.350599        -9.5403
  25   2.0000      -0.340525        -9.2662
  26   2.0000      -0.310669        -8.4537
  27   2.0000      -0.305094        -8.3020
  28   2.0000      -0.303622        -8.2620
  29   2.0000      -0.300693        -8.1823
  30   2.0000      -0.278452        -7.5771
  31   2.0000      -0.252228        -6.8635
  32   0.0000      -0.023366        -0.6358
  33   0.0000       0.076742         2.0882
  34   0.0000       0.101054         2.7498
  35   0.0000       0.118438         3.2229
  36   0.0000       0.124832         3.3969

MULLIKEN ATOMIC CHARGES
-----------------------
   0 C :   -0.529804
   1 C :   -0.226993
   2 C :   -0.316966
   3 C :    0.390488
   4 O :   -0.512389
   5 O :   -0.194845
   6 C :   -0.146146
   7 C :   -0.491029
   8 H :    0.162939
   9 H :    0.162638
  10 H :    0.161436
  11 H :    0.164078
  12 H :    0.155852
  13 H :    0.179598
  14 H :    0.192632
  15 H :    0.173338
  16 H :    0.172665
  17 H :    0.167107
  18 H :    0.165325
  19 H :    0.170075
Sum of atomic charges:    0.0000000

LOEWDIN ATOMIC CHARGES
----------------------
   0 C :   -0.423832
   1 C :   -0.291809
   2 C :   -0.228893
   3 C :    0.364556
   4 O :   -0.497516
   5 O :   -0.599138
   6 C :    0.031156
   7 C :   -0.392437
   8 H :    0.156189
   9 H :    0.155904
  10 H :    0.156165
  11 H :    0.160425
  12 H :    0.163236
  13 H :    0.184367
  14 H :    0.191019
  15 H :    0.188878
  16 H :    0.190108
  17 H :    0.162019
  18 H :    0.161902
  19 H :    0.167703

  Mayer bond orders larger than 0.100000
B(  0-C ,  1-C ) :   0.8957 B(  0-C ,  8-H ) :   0.9706 B(  0-C ,  9-H ) :   0.9781
B(  0-C , 10-H ) :   0.9656 B(  1-C ,  2-C ) :   0.8733 B(  1-C , 11-H ) :   0.9618
B(  1-C , 12-H ) :   0.9730 B(  2-C ,  3-C ) :   0.9430 B(  2-C , 13-H ) :   0.9953
B(  2-C , 14-H ) :   0.9304 B(  3-C ,  4-O ) :   1.7617 B(  3-C ,  5-O ) :   1.0714
B(  5-O ,  6-C ) :   0.7995 B(  6-C ,  7-C ) :   0.9394 B(  6-C , 15-H ) :   0.9513
B(  6-C , 16-H ) :   0.9623 B(  7-C , 17-H ) :   0.9688 B(  7-C , 18-H ) :   0.9699
B(  7-C , 19-H ) :   0.9607

Dispersion correction           -0.005138055
FINAL SINGLE POINT ENERGY      -386.241428598186

DIPOLE MOMENT
-------------

Method             : SCF
Type of density    : Electron Density
Multiplicity       :   1
Irrep              :   0
Energy             :  -386.2480267979481141 Eh
Relativity type    :
Basis              : AO
                                X                 Y                 Z
Electronic contribution:      1.787233179       1.798387200      -0.871154106
Nuclear contribution   :     -1.590695118      -2.202065425       1.859280339
                        -----------------------------------------
Total Dipole Moment    :      0.196538061      -0.403678225       0.988126234
                        -----------------------------------------
Magnitude (a.u.)       :      1.085346384
Magnitude (Debye)      :      2.758731267

Rotational constants in cm-1:             0.152182             0.034414             0.032889
Rotational constants in MHz :          4562.307393          1031.704148           985.996919

                             ****ORCA TERMINATED NORMALLY****
TOTAL RUN TIME: 0 days 0 hours 0 minutes 38 seconds 829 msec
