                         Program Version 6.0.0  -   RELEASE  -
|  1> ! pbe def2-sv(p) def2/J RI DEFGRID1 loosescf d4 GCP(DFT/SV(P)) printgap
|  2> %output
|  3>     printlevel normal
|  4> end
|  5> * xyz 0 1
|  6> C -3.8976743643 -0.29373678 -0.3285812437
|  7> C -2.7023839627 0.0400830957 0.5558173125
|  8> C -1.3855507871 -0.1079920421 -0.201995455
|  9> C -0.1810486122 0.1984169319 0.6877995526
| 10> C 1.1079200894 0.186188444 -0.0901153291
| 11> O 1.2366192385 0.5331029651 -1.244893547
| 12> O 2.1219839308 -0.24781175 0.6529721742
| 13> C 3.4181589562 -0.2823479543 0.0487314523
| 14> H -4.8259562678 -0.1769561991 0.2245515039
| 15> H -3.9261544007 0.3647411507 -1.1935546903
| 16> H -3.8345096621 -1.3198968084 -0.6830566435
| 17> H -2.796111483 1.0648206918 0.9202582778
| 18> H -2.695599841 -0.6236092691 1.4225856744
| 19> H -1.3698749296 0.5686892079 -1.0587749277
| 20> H -1.2987427161 -1.1259168229 -0.587702793
| 21> H -0.0971515875 -0.5102473009 1.511294642
| 22> H -0.2880503218 1.2005127766 1.1112826145
| 23> H 3.4053527416 -0.9390948009 -0.8217931528
| 24> H 4.0876658729 -0.6606288709 0.8145019776
| 25> H 3.708936132 0.719968091 -0.2674671569
| 26> *
| 27>
| 28>                          ****END OF INPUT****

CARTESIAN COORDINATES (ANGSTROEM)
---------------------------------
  C     -3.897674   -0.293737   -0.328581
  C     -2.702384    0.040083    0.555817
  C     -1.385551   -0.107992   -0.201995
  C     -0.181049    0.198417    0.687800
  C      1.107920    0.186188   -0.090115
  O      1.236619    0.533103   -1.244894
  O      2.121984   -0.247812    0.652972
  C      3.418159   -0.282348    0.048731
  H     -4.825956   -0.176956    0.224552
  H     -3.926154    0.364741   -1.193555
  H     -3.834510   -1.319897   -0.683057
  H     -2.796111    1.064821    0.920258
  H     -2.695600   -0.623609    1.422586
  H     -1.369875    0.568689   -1.058775
  H     -1.298743   -1.125917   -0.587703
  H     -0.097152   -0.510247    1.511295
  H     -0.288050    1.200513    1.111283
  H      3.405353   -0.939095   -0.821793
  H      4.087666   -0.660629    0.814502
  H      3.708936    0.719968   -0.267467

 Total Charge           Charge          ....    0
 Multiplicity           Mult            ....    1
 Number of Electrons    NEL             ....   64
 Basis Dimension        Dim             ....  136

ORBITAL ENERGIES
----------------

  NO   OCC          E(Eh)            E(eV)
   0   2.0000     -18.797647      -511.5100
   1   2.0000     -18.733982      -509.7776
   2   2.0000     -10.001912      -272.1659
   3   2.0000      -9.939806      -270.4759
   4   2.0000      -9.895310      -269.2651
   5   2.0000      -9.885969      -269.0109
   6   2.0000      -9.885602      -269.0009
   7   2.0000      -9.873845      -268.6810
   8   2.0000      -1.003681       -27.3116
   9   2.0000      -0.908394       -24.7187
  10   2.0000      -0.728763       -19.8306
  11   2.0000      -0.685811       -18.6619
  12   2.0000      -0.645809       -17.5734
  13   2.0000      -0.576344       -15.6831
  14   2.0000      -0.520598       -14.1662
  15   2.0000      -0.501346       -13.6423
  16   2.0000      -0.443502       -12.0683
  17   2.0000      -0.442046       -12.0287
  18   2.0000      -0.424047       -11.5389
  19   2.0000      -0.410902       -11.1812
  20   2.0000      -0.386597       -10.5198
  21   2.0000      -0.375021       -10.2048
  22   2.0000      -0.370808       -10.0902
  23   2.0000      -0.345533        -9.4024
  24   2.0000      -0.333858        -9.0847
  25   2.0000      -0.310646        -8.4531
  26   2.0000      -0.304784        -8.2936
  27   2.0000      -0.295911        -8.0521
  28   2.0000      -0.286376        -7.7927
  29   2.0000      -0.286017        -7.7829
  30   2.0000      -0.257515        -7.0073
  31   2.0000      -0.218307        -5.9404
  32   0.0000      -0.018038        -0.4908
  33   0.0000       0.038632         1.0512
  34   0.0000       0.055184         1.5016
  35   0.0000       0.067611         1.8398
  36   0.0000       0.071376         1.9423

MULLIKEN ATOMIC CHARGES
-----------------------
   0 C :   -0.256259
   1 C :   -0.174072
   2 C :   -0.213663
   3 C :   -0.134272
   4 C :    0.113262
   5 O :   -0.210839
   6 O :   -0.237927
   7 C :   -0.108878
   8 H :    0.101654
   9 H :    0.099743
  10 H :    0.097928
  11 H :    0.082742
  12 H :    0.082329
  13 H :    0.103542
  14 H :    0.088071
  15 H :    0.097799
  16 H :    0.109924
  17 H :    0.119708
  18 H :    0.120946
  19 H :    0.118261
Sum of atomic charges:    0.0000000

LOEWDIN ATOMIC CHARGES
----------------------
   0 C :   -0.339175
   1 C :   -0.233739
   2 C :   -0.222558
   3 C :   -0.247642
   4 C :    0.036284
   5 O :   -0.168738
   6 O :   -0.076331
   7 C :   -0.204022
   8 H :    0.118702
   9 H :    0.118349
  10 H :    0.117365
  11 H :    0.114170
  12 H :    0.113393
  13 H :    0.123653
  14 H :    0.117883
  15 H :    0.130360
  16 H :    0.142637
  17 H :    0.119804
  18 H :    0.120286
  19 H :    0.119318

  Mayer bond orders larger than 0.100000
B(  0-C ,  1-C ) :   1.1620 B(  0-C ,  8-H ) :   0.9529 B(  0-C ,  9-H ) :   0.9539
B(  0-C , 10-H ) :   0.9544 B(  1-C ,  2-C ) :   1.1342 B(  1-C , 11-H ) :   0.9250
B(  1-C , 12-H ) :   0.9237 B(  2-C ,  3-C ) :   1.1270 B(  2-C , 13-H ) :   0.9141
B(  2-C , 14-H ) :   0.9297 B(  3-C ,  4-C ) :   1.0201 B(  3-C , 15-H ) :   0.9067
B(  3-C , 16-H ) :   0.8837 B(  4-C ,  5-O ) :   2.0522 B(  4-C ,  6-O ) :   1.2239
B(  6-O ,  7-C ) :   0.9393 B(  7-C , 17-H ) :   0.9523 B(  7-C , 18-H ) :   0.9595
B(  7-C , 19-H ) :   0.9520

Dispersion correction           -0.014399854
FINAL SINGLE POINT ENERGY      -385.453905238573

DIPOLE MOMENT
-------------

Method             : SCF
Type of density    : Electron Density
Multiplicity       :   1
Irrep              :   0
Energy             :  -385.5290753802700578 Eh
Relativity type    :
Basis              : AO
                                X                 Y                 Z
Electronic contribution:      9.472176997       1.134297832      -0.703731399
Nuclear contribution   :     -9.266377706      -1.344495132       1.297268513
                        -----------------------------------------
Total Dipole Moment    :      0.205799291      -0.210197301       0.593537114
                        -----------------------------------------
Magnitude (a.u.)       :      0.662436834
Magnitude (Debye)      :      1.683780620

Rotational constants in cm-1:             0.236319             0.024957             0.023520
Rotational constants in MHz :          7084.653810           748.198477           705.120355

                             ****ORCA TERMINATED NORMALLY****
TOTAL RUN TIME: 0 days 0 hours 0 minutes 9 seconds 590 msec
