                         Program Version 6.0.0  -   RELEASE  -
|  1> ! r2scan-3c def2/J RI DEFGRID2 scfconv6 printgap
|  2> %output
|  3>     printlevel normal
|  4> end
|  5> * xyz 0 1
|  6> C 2.5392833058 -0.3600145513 -0.0161277266
|  7> C 1.2863731549 0.5077215821 -0.0288771956
|  8> C 0.0146050412 -0.3348373075 0.0179248236
|  9> C -1.2459604399 0.5269724554 0.0109635123
| 10> N -2.4349410846 -0.3151235351 -0.0362503657
| 11> H 2.5744548 -0.9652247178 0.8868503923
| 12> H 2.5474446663 -1.0264829798 -0.8752548839
| 13> H 3.4324631889 0.2586894782 -0.0509023832
| 14> H 1.3031651185 1.1837589673 0.829439251
| 15> H 1.2777799244 1.1211053337 -0.9323710563
| 16> H -0.0189703766 -1.0041595418 -0.8427414487
| 17> H 0.0203025512 -0.9524339502 0.9194901687
| 18> H -1.2527634394 1.1542427163 -0.885404813
| 19> H -1.2274558652 1.1985663484 0.8878370882
| 20> H -3.2670546672 0.2637375729 -0.0318263406
| 21> H -2.4671124702 -0.9024050308 0.7907113058
| 22> *
| 23>
| 24>                          ****END OF INPUT****

CARTESIAN COORDINATES (ANGSTROEM)
---------------------------------
  C      2.539283   -0.360015   -0.016128
  C      1.286373    0.507722   -0.028877
  C      0.014605   -0.334837    0.017925
  C     -1.245960    0.526972    0.010964
  N     -2.434941   -0.315124   -0.036250
  H      2.574455   -0.965225    0.886850
  H      2.547445   -1.026483   -0.875255
  H      3.432463    0.258689   -0.050902
  H      1.303165    1.183759    0.829439
  H      1.277780    1.121105   -0.932371
  H     -0.018970   -1.004160   -0.842741
  H      0.020303   -0.952434    0.919490
  H     -1.252763    1.154243   -0.885405
  H     -1.227456    1.198566    0.887837
  H     -3.267055    0.263738   -0.031826
  H     -2.467112   -0.902405    0.790711

 Total Charge           Charge          ....    0
 Multiplicity           Mult            ....    1
 Number of Electrons    NEL             ....   42
 Basis Dimension        Dim             ....  155

ORBITAL ENERGIES
----------------

  NO   OCC          E(Eh)            E(eV)
   0   2.0000     -14.133006      -384.5787
   1   2.0000     -10.046854      -273.3888
   2   2.0000     -10.023474      -272.7526
   3   2.0000     -10.019235      -272.6372
   4   2.0000     -10.014526      -272.5091
   5   2.0000      -0.844517       -22.9805
   6   2.0000      -0.752449       -20.4752
   7   2.0000      -0.671224       -18.2649
   8   2.0000      -0.580516       -15.7966
   9   2.0000      -0.544291       -14.8109
  10   2.0000      -0.455002       -12.3812
  11   2.0000      -0.437370       -11.9014
  12   2.0000      -0.409897       -11.1539
  13   2.0000      -0.386484       -10.5168
  14   2.0000      -0.377038       -10.2597
  15   2.0000      -0.343463        -9.3461
  16   2.0000      -0.321966        -8.7611
  17   2.0000      -0.301759        -8.2113
  18   2.0000      -0.294531        -8.0146
  19   2.0000      -0.293007        -7.9731
  20   2.0000      -0.203266        -5.5311
  21   0.0000       0.075577         2.0565
  22   0.0000       0.102613         2.7923
  23   0.0000       0.118240         3.2175
  24   0.0000       0.129608         3.5268
  25   0.0000       0.143193         3.8965

MULLIKEN ATOMIC CHARGES
-----------------------
   0 C :   -0.464359
   1 C :   -0.244427
   2 C :   -0.236027
   3 C :   -0.218302
   4 N :   -0.544564
   5 H :    0.140131
   6 H :    0.142614
   7 H :    0.145382
   8 H :    0.134036
   9 H :    0.136182
  10 H :    0.153127
  11 H :    0.123814
  12 H :    0.136780
  13 H :    0.121409
  14 H :    0.237327
  15 H :    0.236878
Sum of atomic charges:   -0.0000000

LOEWDIN ATOMIC CHARGES
----------------------
   0 C :   -0.424672
   1 C :   -0.316867
   2 C :   -0.285597
   3 C :   -0.074477
   4 N :   -0.747518
   5 H :    0.149252
   6 H :    0.150265
   7 H :    0.149459
   8 H :    0.150564
   9 H :    0.151556
  10 H :    0.161652
  11 H :    0.151136
  12 H :    0.169454
  13 H :    0.146001
  14 H :    0.235244
  15 H :    0.234549

  Mayer bond orders larger than 0.100000
B(  0-C ,  1-C ) :   0.8963 B(  0-C ,  5-H ) :   0.9835 B(  0-C ,  6-H ) :   0.9830
B(  0-C ,  7-H ) :   0.9746 B(  1-C ,  2-C ) :   0.9395 B(  1-C ,  8-H ) :   0.9690
B(  1-C ,  9-H ) :   0.9738 B(  2-C ,  3-C ) :   0.9218 B(  2-C , 10-H ) :   0.9678
B(  2-C , 11-H ) :   0.9595 B(  3-C ,  4-N ) :   0.9331 B(  3-C , 12-H ) :   0.9880
B(  3-C , 13-H ) :   0.9778 B(  4-N , 14-H ) :   0.9202 B(  4-N , 15-H ) :   0.9216

Dispersion correction           -0.003311915
FINAL SINGLE POINT ENERGY      -213.723441300983

DIPOLE MOMENT
-------------

Method             : SCF
Type of density    : Electron Density
Multiplicity       :   1
Irrep              :   0
Energy             :  -213.7305483627416152 Eh
Relativity type    :
Basis              : AO
                                X                 Y                 Z
Electronic contribution:     -2.753178292      -0.039262292      -0.258874725
Nuclear contribution   :      2.728242746       0.307303287       0.652600838
                        -----------------------------------------
Total Dipole Moment    :     -0.024935547       0.268040995       0.393726113
                        -----------------------------------------
Magnitude (a.u.)       :      0.476957030
Magnitude (Debye)      :      1.212328426

Rotational constants in cm-1:             0.602348             0.066256             0.062759
Rotational constants in MHz :         18057.925392          1986.292386          1881.478758

                             ****ORCA TERMINATED NORMALLY****
TOTAL RUN TIME: 0 days 0 hours 0 minutes 17 seconds 23 msec
