                         Program Version 6.0.0  -   RELEASE  -
|  1> ! r2scan-3c def2/J RI DEFGRID2 scfconv6 printgap
|  2> %output
|  3>     printlevel normal
|  4> end
|  5> %cpcm
|  6>     smd true
|  7>     smdsolvent "water"
|  8> end
|  9> * xyz 0 1
| 10> C 2.5392833058 -0.3600145513 -0.0161277266
| 11> C 1.2863731549 0.5077215821 -0.0288771956
| 12> C 0.0146050412 -0.3348373075 0.0179248236
| 13> C -1.2459604399 0.5269724554 0.0109635123
| 14> N -2.4349410846 -0.3151235351 -0.0362503657
| 15> H 2.5744548 -0.9652247178 0.8868503923
| 16> H 2.5474446663 -1.0264829798 -0.8752548839
| 17> H 3.4324631889 0.2586894782 -0.0509023832
| 18> H 1.3031651185 1.1837589673 0.829439251
| 19> H 1.2777799244 1.1211053337 -0.9323710563
| 20> H -0.0189703766 -1.0041595418 -0.8427414487
| 21> H 0.0203025512 -0.9524339502 0.9194901687
| 22> H -1.2527634394 1.1542427163 -0.885404813
| 23> H -1.2274558652 1.1985663484 0.8878370882
| 24> H -3.2670546672 0.2637375729 -0.0318263406
| 25> H -2.4671124702 -0.9024050308 0.7907113058
| 26> *
| 27>
| 28>                          ****END OF INPUT****

CARTESIAN COORDINATES (ANGSTROEM)
---------------------------------
  C      2.539283   -0.360015   -0.016128
  C      1.286373    0.507722   -0.028877
  C      0.014605   -0.334837    0.017925
  C     -1.245960    0.526972    0.010964
  N     -2.434941   -0.315124   -0.036250
  H      2.574455   -0.965225    0.886850
  H      2.547445   -1.026483   -0.875255
  H      3.432463    0.258689   -0.050902
  H      1.303165    1.183759    0.829439
  H      1.277780    1.121105   -0.932371
  H     -0.018970   -1.004160   -0.842741
  H      0.020303   -0.952434    0.919490
  H     -1.252763    1.154243   -0.885405
  H     -1.227456    1.198566    0.887837
  H     -3.267055    0.263738   -0.031826
  H     -2.467112   -0.902405    0.790711

 Total Charge           Charge          ....    0
 Multiplicity           Mult            ....    1
 Number of Electrons    NEL             ....   42
 Basis Dimension        Dim             ....  155

ORBITAL ENERGIES
----------------

  NO   OCC          E(Eh)            E(eV)
   0   2.0000     -14.127304      -384.4235
   1   2.0000     -10.040463      -273.2149
   2   2.0000     -10.016215      -272.5551
   3   2.0000     -10.012893      -272.4647
   4   2.0000     -10.007122      -272.3076
   5   2.0000      -0.838938       -22.8287
   6   2.0000      -0.745681       -20.2910
   7   2.0000      -0.664860       -18.0917
   8   2.0000      -0.574008       -15.6195
   9   2.0000      -0.537829       -14.6351
  10   2.0000      -0.448140       -12.1945
  11   2.0000      -0.430597       -11.7171
  12   2.0000      -0.403625       -10.9832
  13   2.0000      -0.380127       -10.3438
  14   2.0000      -0.370010       -10.0685
  15   2.0000      -0.337173        -9.1749
  16   2.0000      -0.315325        -8.5804
  17   2.0000      -0.295130        -8.0309
  18   2.0000      -0.287847        -7.8327
  19   2.0000      -0.285707        -7.7745
  20   2.0000      -0.204276        -5.5586
  21   0.0000       0.086056         2.3417
  22   0.0000       0.110348         3.0027
  23   0.0000       0.124402         3.3851
  24   0.0000       0.140982         3.8363
  25   0.0000       0.149411         4.0657

MULLIKEN ATOMIC CHARGES
-----------------------
   0 C :   -0.505946
   1 C :   -0.256549
   2 C :   -0.243861
   3 C :   -0.244411
   4 N :   -0.633763
   5 H :    0.152451
   6 H :    0.152460
   7 H :    0.155278
   8 H :    0.144793
   9 H :    0.145717
  10 H :    0.147357
  11 H :    0.144401
  12 H :    0.150677
  13 H :    0.131797
  14 H :    0.279399
  15 H :    0.280201
Sum of atomic charges:   -0.0000000

LOEWDIN ATOMIC CHARGES
----------------------
   0 C :   -0.433220
   1 C :   -0.318486
   2 C :   -0.290412
   3 C :   -0.076986
   4 N :   -0.770400
   5 H :    0.152041
   6 H :    0.152026
   7 H :    0.151788
   8 H :    0.153585
   9 H :    0.153782
  10 H :    0.157937
  11 H :    0.156722
  12 H :    0.171758
  13 H :    0.151167
  14 H :    0.244666
  15 H :    0.244031

  Mayer bond orders larger than 0.100000
B(  0-C ,  1-C ) :   0.8857 B(  0-C ,  5-H ) :   0.9812 B(  0-C ,  6-H ) :   0.9814
B(  0-C ,  7-H ) :   0.9718 B(  1-C ,  2-C ) :   0.9368 B(  1-C ,  8-H ) :   0.9693
B(  1-C ,  9-H ) :   0.9734 B(  2-C ,  3-C ) :   0.9052 B(  2-C , 10-H ) :   0.9659
B(  2-C , 11-H ) :   0.9576 B(  3-C ,  4-N ) :   0.9480 B(  3-C , 12-H ) :   0.9896
B(  3-C , 13-H ) :   0.9818 B(  4-N , 14-H ) :   0.9042 B(  4-N , 15-H ) :   0.9052

Dispersion correction           -0.003311915
FINAL SINGLE POINT ENERGY      -213.728593455170

DIPOLE MOMENT
-------------

Method             : SCF
Type of density    : Electron Density
Multiplicity       :   1
Irrep              :   0
Energy             :  -213.7357005169279205 Eh
Relativity type    :
Basis              : AO
                                X                 Y                 Z
Electronic contribution:     -2.765902611       0.076105142      -0.083483176
Nuclear contribution   :      2.728242746       0.307303287       0.652600838
                        -----------------------------------------
Total Dipole Moment    :     -0.037659865       0.383408428       0.569117662
                        -----------------------------------------
Magnitude (a.u.)       :      0.687251920
Magnitude (Debye)      :      1.746855556

Rotational constants in cm-1:             0.602348             0.066256             0.062759
Rotational constants in MHz :         18057.925392          1986.292386          1881.478758

                             ****ORCA TERMINATED NORMALLY****
TOTAL RUN TIME: 0 days 0 hours 0 minutes 20 seconds 511 msec
