                         Program Version 6.0.0  -   RELEASE  -
|  1> ! r2scan-3c def2/J RI DEFGRID2 scfconv6 printgap
|  2> %output
|  3>     printlevel normal
|  4> end
|  5> * xyz 0 1
|  6> C -3.2505315348 -0.8999548553 -0.3198884185
|  7> C -1.8576906139 -0.627572914 0.2352573122
|  8> C -1.4996082976 0.8548106237 0.1522145186
|  9> C -0.1158589915 1.1435642999 0.7451413469
| 10> C 0.9570459453 0.4829392782 -0.0799986488
| 11> O 1.1564427879 0.690432869 -1.2587534328
| 12> O 1.6669665413 -0.3813182224 0.6369127637
| 13> C 2.720879191 -1.0924403328 -0.0182328763
| 14> H -3.4873628619 -1.9585731705 -0.2533844296
| 15> H -3.997721685 -0.3429892914 0.239969643
| 16> H -3.3084533918 -0.5991561517 -1.3633373152
| 17> H -1.8096393593 -0.9534311362 1.2763430293
| 18> H -1.1222080987 -1.2076445247 -0.3281592151
| 19> H -2.2444115112 1.4393020288 0.6935139992
| 20> H -1.5062478295 1.1735299596 -0.8922400542
| 21> H -0.0455262341 0.7769519815 1.7683457063
| 22> H 0.0662811246 2.2189638059 0.7270231214
| 23> H 2.948379221 -1.9405128272 0.6201396121
| 24> H 3.590401919 -0.4433991354 -0.1249887627
| 25> H 2.3936590225 -1.4176073496 -1.0066429687
| 26> *
| 27>
| 28>                          ****END OF INPUT****

CARTESIAN COORDINATES (ANGSTROEM)
---------------------------------
  C     -3.250532   -0.899955   -0.319888
  C     -1.857691   -0.627573    0.235257
  C     -1.499608    0.854811    0.152215
  C     -0.115859    1.143564    0.745141
  C      0.957046    0.482939   -0.079999
  O      1.156443    0.690433   -1.258753
  O      1.666967   -0.381318    0.636913
  C      2.720879   -1.092440   -0.018233
  H     -3.487363   -1.958573   -0.253384
  H     -3.997722   -0.342989    0.239970
  H     -3.308453   -0.599156   -1.363337
  H     -1.809639   -0.953431    1.276343
  H     -1.122208   -1.207645   -0.328159
  H     -2.244412    1.439302    0.693514
  H     -1.506248    1.173530   -0.892240
  H     -0.045526    0.776952    1.768346
  H      0.066281    2.218964    0.727023
  H      2.948379   -1.940513    0.620140
  H      3.590402   -0.443399   -0.124989
  H      2.393659   -1.417607   -1.006643

 Total Charge           Charge          ....    0
 Multiplicity           Mult            ....    1
 Number of Electrons    NEL             ....   64
 Basis Dimension        Dim             ....  222

ORBITAL ENERGIES
----------------

  NO   OCC          E(Eh)            E(eV)
   0   2.0000     -19.000262      -517.0234
   1   2.0000     -18.928494      -515.0705
   2   2.0000     -10.151962      -276.2489
   3   2.0000     -10.086622      -274.4709
   4   2.0000     -10.041343      -273.2388
   5   2.0000     -10.033190      -273.0170
   6   2.0000     -10.027729      -272.8684
   7   2.0000     -10.017515      -272.5904
   8   2.0000      -1.073347       -29.2073
   9   2.0000      -0.976063       -26.5600
  10   2.0000      -0.778417       -21.1818
  11   2.0000      -0.726794       -19.7771
  12   2.0000      -0.687223       -18.7003
  13   2.0000      -0.615285       -16.7427
  14   2.0000      -0.558417       -15.1953
  15   2.0000      -0.527108       -14.3433
  16   2.0000      -0.473708       -12.8902
  17   2.0000      -0.455674       -12.3995
  18   2.0000      -0.445894       -12.1334
  19   2.0000      -0.426151       -11.5962
  20   2.0000      -0.409356       -11.1392
  21   2.0000      -0.397441       -10.8149
  22   2.0000      -0.387712       -10.5502
  23   2.0000      -0.353625        -9.6226
  24   2.0000      -0.349610        -9.5134
  25   2.0000      -0.338000        -9.1974
  26   2.0000      -0.321409        -8.7460
  27   2.0000      -0.307171        -8.3586
  28   2.0000      -0.300284        -8.1711
  29   2.0000      -0.295940        -8.0529
  30   2.0000      -0.274087        -7.4583
  31   2.0000      -0.236915        -6.4468
  32   0.0000      -0.016132        -0.4390
  33   0.0000       0.064850         1.7646
  34   0.0000       0.090420         2.4604
  35   0.0000       0.107867         2.9352
  36   0.0000       0.113133         3.0785

MULLIKEN ATOMIC CHARGES
-----------------------
   0 C :   -0.474382
   1 C :   -0.250057
   2 C :   -0.266879
   3 C :   -0.287891
   4 C :    0.342711
   5 O :   -0.419807
   6 O :   -0.182230
   7 C :   -0.297025
   8 H :    0.147275
   9 H :    0.140772
  10 H :    0.146169
  11 H :    0.140855
  12 H :    0.146640
  13 H :    0.145275
  14 H :    0.165258
  15 H :    0.160586
  16 H :    0.166541
  17 H :    0.150237
  18 H :    0.154570
  19 H :    0.171385
Sum of atomic charges:    0.0000000

LOEWDIN ATOMIC CHARGES
----------------------
   0 C :   -0.422077
   1 C :   -0.309196
   2 C :   -0.285951
   3 C :   -0.229297
   4 C :    0.348357
   5 O :   -0.430189
   6 O :   -0.604112
   7 C :   -0.046051
   8 H :    0.150961
   9 H :    0.149887
  10 H :    0.152062
  11 H :    0.151949
  12 H :    0.157110
  13 H :    0.156013
  14 H :    0.169152
  15 H :    0.177584
  16 H :    0.181237
  17 H :    0.175954
  18 H :    0.173732
  19 H :    0.182875

  Mayer bond orders larger than 0.100000
B(  0-C ,  1-C ) :   0.9029 B(  0-C ,  8-H ) :   0.9741 B(  0-C ,  9-H ) :   0.9822
B(  0-C , 10-H ) :   0.9832 B(  1-C ,  2-C ) :   0.9222 B(  1-C , 11-H ) :   0.9695
B(  1-C , 12-H ) :   0.9590 B(  2-C ,  3-C ) :   0.8884 B(  2-C , 13-H ) :   0.9702
B(  2-C , 14-H ) :   0.9753 B(  3-C ,  4-C ) :   0.9399 B(  3-C , 15-H ) :   1.0028
B(  3-C , 16-H ) :   0.9450 B(  4-C ,  5-O ) :   1.8221 B(  4-C ,  6-O ) :   1.0504
B(  6-O ,  7-C ) :   0.8498 B(  7-C , 17-H ) :   0.9694 B(  7-C , 18-H ) :   0.9601
B(  7-C , 19-H ) :   0.9643

Dispersion correction           -0.005140823
FINAL SINGLE POINT ENERGY      -386.231249883088

DIPOLE MOMENT
-------------

Method             : SCF
Type of density    : Electron Density
Multiplicity       :   1
Irrep              :   0
Energy             :  -386.2380637310917564 Eh
Relativity type    :
Basis              : AO
                                X                 Y                 Z
Electronic contribution:      7.962571505       2.693788492      -0.598796743
Nuclear contribution   :     -7.953987768      -3.048741660       1.263479642
                        -----------------------------------------
Total Dipole Moment    :      0.008583736      -0.354953167       0.664682900
                        -----------------------------------------
Magnitude (a.u.)       :      0.753570693
Magnitude (Debye)      :      1.915424479

Rotational constants in cm-1:             0.121542             0.034328             0.031924
Rotational constants in MHz :          3643.744214          1029.116894           957.054286

                             ****ORCA TERMINATED NORMALLY****
TOTAL RUN TIME: 0 days 0 hours 0 minutes 29 seconds 97 msec
