                         Program Version 6.0.0  -   RELEASE  -
|  1> ! r2scan-3c def2/J RI DEFGRID2 scfconv6 printgap
|  2> %output
|  3>     printlevel normal
|  4> end
|  5> %cpcm
|  6>     smd true
|  7>     smdsolvent "water"
|  8> end
|  9> * xyz 0 1
| 10> C -3.2505315348 -0.8999548553 -0.3198884185
| 11> C -1.8576906139 -0.627572914 0.2352573122
| 12> C -1.4996082976 0.8548106237 0.1522145186
| 13> C -0.1158589915 1.1435642999 0.7451413469
| 14> C 0.9570459453 0.4829392782 -0.0799986488
| 15> O 1.1564427879 0.690432869 -1.2587534328
| 16> O 1.6669665413 -0.3813182224 0.6369127637
| 17> C 2.720879191 -1.0924403328 -0.0182328763
| 18> H -3.4873628619 -1.9585731705 -0.2533844296
| 19> H -3.997721685 -0.3429892914 0.239969643
| 20> H -3.3084533918 -0.5991561517 -1.3633373152
| 21> H -1.8096393593 -0.9534311362 1.2763430293
| 22> H -1.1222080987 -1.2076445247 -0.3281592151
| 23> H -2.2444115112 1.4393020288 0.6935139992
| 24> H -1.5062478295 1.1735299596 -0.8922400542
| 25> H -0.0455262341 0.7769519815 1.7683457063
| 26> H 0.0662811246 2.2189638059 0.7270231214
| 27> H 2.948379221 -1.9405128272 0.6201396121
| 28> H 3.590401919 -0.4433991354 -0.1249887627
| 29> H 2.3936590225 -1.4176073496 -1.0066429687
| 30> *
| 31>
| 32>                          ****END OF INPUT****

CARTESIAN COORDINATES (ANGSTROEM)
---------------------------------
  C     -3.250532   -0.899955   -0.319888
  C     -1.857691   -0.627573    0.235257
  C     -1.499608    0.854811    0.152215
  C     -0.115859    1.143564    0.745141
  C      0.957046    0.482939   -0.079999
  O      1.156443    0.690433   -1.258753
  O      1.666967   -0.381318    0.636913
  C      2.720879   -1.092440   -0.018233
  H     -3.487363   -1.958573   -0.253384
  H     -3.997722   -0.342989    0.239970
  H     -3.308453   -0.599156   -1.363337
  H     -1.809639   -0.953431    1.276343
  H     -1.122208   -1.207645   -0.328159
  H     -2.244412    1.439302    0.693514
  H     -1.506248    1.173530   -0.892240
  H     -0.045526    0.776952    1.768346
  H      0.066281    2.218964    0.727023
  H      2.948379   -1.940513    0.620140
  H      3.590402   -0.443399   -0.124989
  H      2.393659   -1.417607   -1.006643

 Total Charge           Charge          ....    0
 Multiplicity           Mult            ....    1
 Number of Electrons    NEL             ....   64
 Basis Dimension        Dim             ....  222

ORBITAL ENERGIES
----------------

  NO   OCC          E(Eh)            E(eV)
   0   2.0000     -19.005473      -517.1652
   1   2.0000     -18.944197      -515.4978
   2   2.0000     -10.162365      -276.5320
   3   2.0000     -10.076121      -274.1852
   4   2.0000     -10.035567      -273.0817
   5   2.0000     -10.026299      -272.8295
   6   2.0000     -10.019353      -272.6405
   7   2.0000     -10.008853      -272.3547
   8   2.0000      -1.080190       -29.3935
   9   2.0000      -0.989497       -26.9256
  10   2.0000      -0.772894       -21.0315
  11   2.0000      -0.721863       -19.6429
  12   2.0000      -0.680881       -18.5277
  13   2.0000      -0.608719       -16.5641
  14   2.0000      -0.551728       -15.0133
  15   2.0000      -0.525198       -14.2914
  16   2.0000      -0.473903       -12.8956
  17   2.0000      -0.457806       -12.4575
  18   2.0000      -0.451572       -12.2879
  19   2.0000      -0.424601       -11.5540
  20   2.0000      -0.402415       -10.9503
  21   2.0000      -0.390665       -10.6305
  22   2.0000      -0.385583       -10.4922
  23   2.0000      -0.354247        -9.6395
  24   2.0000      -0.343687        -9.3522
  25   2.0000      -0.331424        -9.0185
  26   2.0000      -0.322095        -8.7646
  27   2.0000      -0.301371        -8.2007
  28   2.0000      -0.292367        -7.9557
  29   2.0000      -0.288813        -7.8590
  30   2.0000      -0.281583        -7.6622
  31   2.0000      -0.253255        -6.8914
  32   0.0000      -0.023887        -0.6500
  33   0.0000       0.069234         1.8840
  34   0.0000       0.098103         2.6695
  35   0.0000       0.116669         3.1747
  36   0.0000       0.124392         3.3849

MULLIKEN ATOMIC CHARGES
-----------------------
   0 C :   -0.517853
   1 C :   -0.257309
   2 C :   -0.278171
   3 C :   -0.305959
   4 C :    0.383055
   5 O :   -0.505192
   6 O :   -0.199707
   7 C :   -0.327436
   8 H :    0.157965
   9 H :    0.154835
  10 H :    0.154718
  11 H :    0.155399
  12 H :    0.153238
  13 H :    0.165175
  14 H :    0.160970
  15 H :    0.176663
  16 H :    0.194180
  17 H :    0.177787
  18 H :    0.179934
  19 H :    0.177708
Sum of atomic charges:    0.0000000

LOEWDIN ATOMIC CHARGES
----------------------
   0 C :   -0.430132
   1 C :   -0.311050
   2 C :   -0.285647
   3 C :   -0.226630
   4 C :    0.357814
   5 O :   -0.491130
   6 O :   -0.606095
   7 C :   -0.042788
   8 H :    0.153577
   9 H :    0.153617
  10 H :    0.153370
  11 H :    0.156473
  12 H :    0.157663
  13 H :    0.163610
  14 H :    0.165770
  15 H :    0.185091
  16 H :    0.190781
  17 H :    0.188100
  18 H :    0.182216
  19 H :    0.185391

  Mayer bond orders larger than 0.100000
B(  0-C ,  1-C ) :   0.8933 B(  0-C ,  8-H ) :   0.9711 B(  0-C ,  9-H ) :   0.9796
B(  0-C , 10-H ) :   0.9817 B(  1-C ,  2-C ) :   0.9119 B(  1-C , 11-H ) :   0.9677
B(  1-C , 12-H ) :   0.9582 B(  2-C ,  3-C ) :   0.8718 B(  2-C , 13-H ) :   0.9645
B(  2-C , 14-H ) :   0.9816 B(  3-C ,  4-C ) :   0.9420 B(  3-C , 15-H ) :   0.9925
B(  3-C , 16-H ) :   0.9396 B(  4-C ,  5-O ) :   1.7547 B(  4-C ,  6-O ) :   1.0743
B(  6-O ,  7-C ) :   0.8321 B(  7-C , 17-H ) :   0.9595 B(  7-C , 18-H ) :   0.9533
B(  7-C , 19-H ) :   0.9598

Dispersion correction           -0.005140823
FINAL SINGLE POINT ENERGY      -386.236130019518

DIPOLE MOMENT
-------------

Method             : SCF
Type of density    : Electron Density
Multiplicity       :   1
Irrep              :   0
Energy             :  -386.2429438675219444 Eh
Relativity type    :
Basis              : AO
                                X                 Y                 Z
Electronic contribution:      7.959200488       2.593989033      -0.258217675
Nuclear contribution   :     -7.953987768      -3.048741660       1.263479642
                        -----------------------------------------
Total Dipole Moment    :      0.005212720      -0.454752627       1.005261967
                        -----------------------------------------
Magnitude (a.u.)       :      1.103348878
Magnitude (Debye)      :      2.804489971

Rotational constants in cm-1:             0.121542             0.034328             0.031924
Rotational constants in MHz :          3643.744214          1029.116894           957.054286

                             ****ORCA TERMINATED NORMALLY****
TOTAL RUN TIME: 0 days 0 hours 0 minutes 34 seconds 272 msec
