                         Program Version 6.0.0  -   RELEASE  -
|  1> ! pbe def2-sv(p) def2/J RI DEFGRID1 loosescf d4 GCP(DFT/SV(P)) printgap
|  2> %output
|  3>     printlevel normal
|  4> end
|  5> * xyz 0 1
|  6> C -4.4946210176 -1.217840348 -0.2522811661
|  7> C -3.6818601714 -2.3426534358 -0.2253252268
|  8> C -2.3097951259 -2.2030302148 -0.1286261979
|  9> C -1.7255992903 -0.9401014657 -0.0564079634
| 10> C -2.5466728357 0.1931146272 -0.0832489521
| 11> C -3.9285871608 0.0410614357 -0.1818160724
| 12> C -1.9706375113 1.5419367213 -0.0089946031
| 13> O -2.6797332039 2.5458491856 -0.0390801215
| 14> C -0.5046466158 1.6333237107 0.1051616599
| 15> C 0.0416074318 2.9023412245 0.1882753909
| 16> C 1.4194856079 3.0724213871 0.3039549406
| 17> C 2.2473125042 1.9827758071 0.333764843
| 18> C 1.7337481777 0.6656386752 0.2451450303
| 19> C 0.3208901104 0.4844865897 0.1304048799
| 20> C -0.2569816257 -0.8382819488 0.0442910924
| 21> O 0.4202394326 -1.882719421 0.0511691937
| 22> N 2.5567271077 -0.3876956364 0.2645934195
| 23> C 3.994109267 -0.346182193 0.3910117593
| 24> C 4.5721081579 -1.7542896948 0.2300791855
| 25> O 4.5420777615 -2.2125237167 -1.1023367113
| 26> H -5.5653008155 -1.3237108357 -0.3281470744
| 27> H -4.118703978 -3.3274080772 -0.280064064
| 28> H -1.6609606397 -3.0660722538 -0.1067300314
| 29> H -4.5365233226 0.9335091657 -0.2008889598
| 30> H -0.6263835919 3.7495345708 0.163816085
| 31> H 1.8303425992 4.0673258541 0.3726096104
| 32> H 3.3108352609 2.1208369924 0.4302657234
| 33> H 2.0993095653 -1.2978123187 0.256069348
| 34> H 4.2825160228 0.0445674212 1.373160501
| 35> H 4.4214805746 0.2949046031 -0.3868794896
| 36> H 4.0395424298 -2.4514141777 0.8898911354
| 37> H 5.6275852212 -1.7457686711 0.5081370985
| 38> H 3.6240995883 -2.2732838124 -1.4002636395
| 39> *
| 40>
| 41>                          ****END OF INPUT****

CARTESIAN COORDINATES (ANGSTROEM)
---------------------------------
  C     -4.494621   -1.217840   -0.252281
  C     -3.681860   -2.342653   -0.225325
  C     -2.309795   -2.203030   -0.128626
  C     -1.725599   -0.940101   -0.056408
  C     -2.546673    0.193115   -0.083249
  C     -3.928587    0.041061   -0.181816
  C     -1.970638    1.541937   -0.008995
  O     -2.679733    2.545849   -0.039080
  C     -0.504647    1.633324    0.105162
  C      0.041607    2.902341    0.188275
  C      1.419486    3.072421    0.303955
  C      2.247313    1.982776    0.333765
  C      1.733748    0.665639    0.245145
  C      0.320890    0.484487    0.130405
  C     -0.256982   -0.838282    0.044291
  O      0.420239   -1.882719    0.051169
  N      2.556727   -0.387696    0.264593
  C      3.994109   -0.346182    0.391012
  C      4.572108   -1.754290    0.230079
  O      4.542078   -2.212524   -1.102337
  H     -5.565301   -1.323711   -0.328147
  H     -4.118704   -3.327408   -0.280064
  H     -1.660961   -3.066072   -0.106730
  H     -4.536523    0.933509   -0.200889
  H     -0.626384    3.749535    0.163816
  H      1.830343    4.067326    0.372610
  H      3.310835    2.120837    0.430266
  H      2.099310   -1.297812    0.256069
  H      4.282516    0.044567    1.373161
  H      4.421481    0.294905   -0.386879
  H      4.039542   -2.451414    0.889891
  H      5.627585   -1.745769    0.508137
  H      3.624100   -2.273284   -1.400264

 Total Charge           Charge          ....    0
 Multiplicity           Mult            ....    1
 Number of Electrons    NEL             ....  140
 Basis Dimension        Dim             ....  306

ORBITAL ENERGIES
----------------

  NO   OCC          E(Eh)            E(eV)
   0   2.0000     -18.755252      -510.3563
   1   2.0000     -18.752773      -510.2889
   2   2.0000     -18.744686      -510.0688
   3   2.0000     -14.023226      -381.5914
   4   2.0000      -9.981024      -271.5975
   5   2.0000      -9.976186      -271.4658
   6   2.0000      -9.961119      -271.0558
   7   2.0000      -9.948943      -270.7245
   8   2.0000      -9.937552      -270.4145
   9   2.0000      -9.916004      -269.8282
  10   2.0000      -9.914572      -269.7892
  11   2.0000      -9.914371      -269.7838
  12   2.0000      -9.913481      -269.7595
  13   2.0000      -9.911817      -269.7143
  14   2.0000      -9.910810      -269.6869
  15   2.0000      -9.910057      -269.6664
  16   2.0000      -9.908689      -269.6291
  17   2.0000      -9.906907      -269.5806
  18   2.0000      -9.906580      -269.5717
  19   2.0000      -9.897613      -269.3277
  20   2.0000      -0.944596       -25.7038
  21   2.0000      -0.937217       -25.5030
  22   2.0000      -0.933641       -25.4057
  23   2.0000      -0.876115       -23.8403
  24   2.0000      -0.799295       -21.7499
  25   2.0000      -0.784193       -21.3390
  26   2.0000      -0.727583       -19.7985
  27   2.0000      -0.706873       -19.2350
  28   2.0000      -0.690303       -18.7841
  29   2.0000      -0.686174       -18.6717
  30   2.0000      -0.657143       -17.8818
  31   2.0000      -0.611784       -16.6475
  32   2.0000      -0.599218       -16.3056
  33   2.0000      -0.586161       -15.9503
  34   2.0000      -0.569117       -15.4865
  35   2.0000      -0.543104       -14.7786
  36   2.0000      -0.527050       -14.3418
  37   2.0000      -0.499717       -13.5980
  38   2.0000      -0.492846       -13.4110
  39   2.0000      -0.478014       -13.0074
  40   2.0000      -0.458544       -12.4776
  41   2.0000      -0.448591       -12.2068
  42   2.0000      -0.438032       -11.9195
  43   2.0000      -0.428402       -11.6574
  44   2.0000      -0.426482       -11.6052
  45   2.0000      -0.418860       -11.3978
  46   2.0000      -0.411582       -11.1997
  47   2.0000      -0.400589       -10.9006
  48   2.0000      -0.390479       -10.6255
  49   2.0000      -0.386733       -10.5235
  50   2.0000      -0.380783       -10.3616
  51   2.0000      -0.375734       -10.2242
  52   2.0000      -0.370748       -10.0886
  53   2.0000      -0.364476        -9.9179
  54   2.0000      -0.360178        -9.8009
  55   2.0000      -0.349476        -9.5097
  56   2.0000      -0.340893        -9.2762
  57   2.0000      -0.333008        -9.0616
  58   2.0000      -0.323954        -8.8152
  59   2.0000      -0.319068        -8.6823
  60   2.0000      -0.310669        -8.4537
  61   2.0000      -0.290933        -7.9167
  62   2.0000      -0.283395        -7.7116
  63   2.0000      -0.252100        -6.8600
  64   2.0000      -0.244473        -6.6524
  65   2.0000      -0.243038        -6.6134
  66   2.0000      -0.230645        -6.2762
  67   2.0000      -0.220876        -6.0103
  68   2.0000      -0.207864        -5.6563
  69   2.0000      -0.192829        -5.2471
  70   0.0000      -0.128933        -3.5085
  71   0.0000      -0.080999        -2.2041
  72   0.0000      -0.053810        -1.4643
  73   0.0000      -0.033650        -0.9157
  74   0.0000       0.016034         0.4363

MULLIKEN ATOMIC CHARGES
-----------------------
   0 C :   -0.020655
   1 C :   -0.016740
   2 C :   -0.133508
   3 C :    0.051935
   4 C :    0.037817
   5 C :   -0.125545
   6 C :    0.086525
   7 O :   -0.149365
   8 C :    0.020559
   9 C :   -0.138876
  10 C :   -0.003570
  11 C :   -0.159976
  12 C :    0.076489
  13 C :    0.052067
  14 C :    0.073563
  15 O :   -0.225618
  16 N :   -0.267047
  17 C :   -0.080268
  18 C :    0.001659
  19 O :   -0.436367
  20 H :    0.063657
  21 H :    0.063061
  22 H :    0.058428
  23 H :    0.059277
  24 H :    0.056551
  25 H :    0.061471
  26 H :    0.045179
  27 H :    0.242979
  28 H :    0.099304
  29 H :    0.112264
  30 H :    0.093505
  31 H :    0.100816
  32 H :    0.300429
Sum of atomic charges:    0.0000000

LOEWDIN ATOMIC CHARGES
----------------------
   0 C :   -0.106854
   1 C :   -0.104599
   2 C :   -0.088368
   3 C :   -0.045214
   4 C :   -0.052948
   5 C :   -0.082353
   6 C :    0.058819
   7 O :   -0.129934
   8 C :   -0.044437
   9 C :   -0.109882
  10 C :   -0.094263
  11 C :   -0.145729
  12 C :    0.034466
  13 C :   -0.089712
  14 C :    0.057663
  15 O :   -0.183835
  16 N :   -0.140107
  17 C :   -0.181059
  18 C :   -0.125032
  19 O :   -0.336483
  20 H :    0.129268
  21 H :    0.129043
  22 H :    0.134796
  23 H :    0.136309
  24 H :    0.135445
  25 H :    0.130543
  26 H :    0.130211
  27 H :    0.235252
  28 H :    0.117746
  29 H :    0.122424
  30 H :    0.103571
  31 H :    0.122309
  32 H :    0.282943

  Mayer bond orders larger than 0.100000
B(  0-C ,  1-C ) :   1.3279 B(  0-C ,  5-C ) :   1.3358 B(  0-C , 20-H ) :   0.9668
B(  1-C ,  2-C ) :   1.3359 B(  1-C , 21-H ) :   0.9665 B(  2-C ,  3-C ) :   1.3793
B(  2-C , 22-H ) :   0.9547 B(  3-C ,  4-C ) :   1.3349 B(  3-C , 14-C ) :   0.9838
B(  4-C ,  5-C ) :   1.3798 B(  4-C ,  6-C ) :   0.9553 B(  5-C , 23-H ) :   0.9568
B(  6-C ,  7-O ) :   2.1568 B(  6-C ,  8-C ) :   0.9489 B(  8-C ,  9-C ) :   1.4279
B(  8-C , 13-C ) :   1.3015 B(  9-C , 10-C ) :   1.2336 B(  9-C , 24-H ) :   0.9562
B( 10-C , 11-C ) :   1.3781 B( 10-C , 25-H ) :   0.9659 B( 11-C , 12-C ) :   1.2449
B( 11-C , 26-H ) :   0.9566 B( 12-C , 13-C ) :   1.2109 B( 12-C , 16-N ) :   1.4007
B( 13-C , 14-C ) :   1.0281 B( 14-C , 15-O ) :   1.9477 B( 15-O , 27-H ) :   0.1520
B( 16-N , 17-C ) :   0.9908 B( 16-N , 27-H ) :   0.7532 B( 17-C , 18-C ) :   1.0892
B( 17-C , 28-H ) :   0.9047 B( 17-C , 29-H ) :   0.9046 B( 18-C , 19-O ) :   1.0762
B( 18-C , 30-H ) :   0.9169 B( 18-C , 31-H ) :   0.9266 B( 19-O , 32-H ) :   0.8484

Dispersion correction           -0.046255603
FINAL SINGLE POINT ENERGY      -896.123235089624

DIPOLE MOMENT
-------------

Method             : SCF
Type of density    : Electron Density
Multiplicity       :   1
Irrep              :   0
Energy             :  -896.2208038949495403 Eh
Relativity type    :
Basis              : AO
                                X                 Y                 Z
Electronic contribution:    -11.523603409       3.740295273      -0.835323860
Nuclear contribution   :     11.988743500      -4.035561442       1.196466960
                        -----------------------------------------
Total Dipole Moment    :      0.465140091      -0.295266169       0.361143100
                        -----------------------------------------
Magnitude (a.u.)       :      0.658757735
Magnitude (Debye)      :      1.674429093

Rotational constants in cm-1:             0.019266             0.007852             0.005679
Rotational constants in MHz :           577.567280           235.393782           170.264075

                             ****ORCA TERMINATED NORMALLY****
TOTAL RUN TIME: 0 days 0 hours 0 minutes 33 seconds 795 msec
