                         Program Version 6.0.0  -   RELEASE  -
|  1> ! r2scan-3c def2/J RI DEFGRID2 scfconv6 printgap
|  2> %output
|  3>     printlevel normal
|  4> end
|  5> * xyz 0 1
|  6> C -3.4009686842 -1.0288040232 0.1891100883
|  7> C -2.0429127085 -0.4417205173 0.5510502235
|  8> C -1.2904035407 0.0297899154 -0.7019851632
|  9> C 0.0185219308 0.6500596906 -0.2931429137
| 10> O 0.1383731289 1.766910315 0.1695379543
| 11> O 1.0290269218 -0.1884808946 -0.4640453458
| 12> C 2.3520477452 0.2125672613 -0.0658145667
| 13> C 3.0584507877 -0.9763668749 0.5608136023
| 14> H -3.9163944724 -1.3595480362 1.0865477588
| 15> H -4.0173218444 -0.2846416753 -0.3085839485
| 16> H -3.282143942 -1.8803831549 -0.4756829691
| 17> H -1.4423575234 -1.1937202745 1.0663721094
| 18> H -2.1709449094 0.4079889812 1.2248481152
| 19> H -1.8857863852 0.7830274646 -1.2181085756
| 20> H -1.094918913 -0.8137026223 -1.3622920655
| 21> H 2.8728549929 0.5502380068 -0.9665051696
| 22> H 2.2651576427 1.0516638223 0.6315653957
| 23> H 4.0747026278 -0.6947363315 0.8161507924
| 24> H 2.5397921819 -1.2930169115 1.4614152871
| 25> H 3.080707281 -1.8047000474 -0.1411360282
| 26> *
| 27>
| 28>                          ****END OF INPUT****

CARTESIAN COORDINATES (ANGSTROEM)
---------------------------------
  C     -3.400969   -1.028804    0.189110
  C     -2.042913   -0.441721    0.551050
  C     -1.290404    0.029790   -0.701985
  C      0.018522    0.650060   -0.293143
  O      0.138373    1.766910    0.169538
  O      1.029027   -0.188481   -0.464045
  C      2.352048    0.212567   -0.065815
  C      3.058451   -0.976367    0.560814
  H     -3.916394   -1.359548    1.086548
  H     -4.017322   -0.284642   -0.308584
  H     -3.282144   -1.880383   -0.475683
  H     -1.442358   -1.193720    1.066372
  H     -2.170945    0.407989    1.224848
  H     -1.885786    0.783027   -1.218109
  H     -1.094919   -0.813703   -1.362292
  H      2.872855    0.550238   -0.966505
  H      2.265158    1.051664    0.631565
  H      4.074703   -0.694736    0.816151
  H      2.539792   -1.293017    1.461415
  H      3.080707   -1.804700   -0.141136

 Total Charge           Charge          ....    0
 Multiplicity           Mult            ....    1
 Number of Electrons    NEL             ....   64
 Basis Dimension        Dim             ....  222

ORBITAL ENERGIES
----------------

  NO   OCC          E(Eh)            E(eV)
   0   2.0000     -18.996085      -516.9098
   1   2.0000     -18.924542      -514.9630
   2   2.0000     -10.149868      -276.1919
   3   2.0000     -10.089759      -274.5563
   4   2.0000     -10.039805      -273.1970
   5   2.0000     -10.037827      -273.1431
   6   2.0000     -10.031926      -272.9826
   7   2.0000     -10.023058      -272.7413
   8   2.0000      -1.070150       -29.1203
   9   2.0000      -0.972685       -26.4681
  10   2.0000      -0.774464       -21.0742
  11   2.0000      -0.743031       -20.2189
  12   2.0000      -0.680873       -18.5275
  13   2.0000      -0.616618       -16.7790
  14   2.0000      -0.567283       -15.4366
  15   2.0000      -0.530748       -14.4424
  16   2.0000      -0.467313       -12.7162
  17   2.0000      -0.458081       -12.4650
  18   2.0000      -0.446183       -12.1413
  19   2.0000      -0.422411       -11.4944
  20   2.0000      -0.407483       -11.0882
  21   2.0000      -0.380386       -10.3508
  22   2.0000      -0.374767       -10.1979
  23   2.0000      -0.371127       -10.0989
  24   2.0000      -0.360343        -9.8054
  25   2.0000      -0.335740        -9.1360
  26   2.0000      -0.328533        -8.9398
  27   2.0000      -0.314583        -8.5602
  28   2.0000      -0.308777        -8.4023
  29   2.0000      -0.303353        -8.2546
  30   2.0000      -0.268448        -7.3048
  31   2.0000      -0.232415        -6.3243
  32   0.0000      -0.012804        -0.3484
  33   0.0000       0.077708         2.1145
  34   0.0000       0.095937         2.6106
  35   0.0000       0.104320         2.8387
  36   0.0000       0.120308         3.2737

MULLIKEN ATOMIC CHARGES
-----------------------
   0 C :   -0.474506
   1 C :   -0.228822
   2 C :   -0.342430
   3 C :    0.421301
   4 O :   -0.439789
   5 O :   -0.171432
   6 C :   -0.159334
   7 C :   -0.444419
   8 H :    0.150728
   9 H :    0.146600
  10 H :    0.144141
  11 H :    0.141150
  12 H :    0.161450
  13 H :    0.161402
  14 H :    0.156818
  15 H :    0.143149
  16 H :    0.182712
  17 H :    0.147118
  18 H :    0.151115
  19 H :    0.153050
Sum of atomic charges:   -0.0000000

LOEWDIN ATOMIC CHARGES
----------------------
   0 C :   -0.419905
   1 C :   -0.287565
   2 C :   -0.229800
   3 C :    0.357937
   4 O :   -0.439546
   5 O :   -0.596792
   6 C :    0.031764
   7 C :   -0.387443
   8 H :    0.153101
   9 H :    0.151416
  10 H :    0.150497
  11 H :    0.156045
  12 H :    0.163087
  13 H :    0.177700
  14 H :    0.175889
  15 H :    0.174733
  16 H :    0.193329
  17 H :    0.159218
  18 H :    0.157907
  19 H :    0.158429

  Mayer bond orders larger than 0.100000
B(  0-C ,  1-C ) :   0.8939 B(  0-C ,  8-H ) :   0.9722 B(  0-C ,  9-H ) :   0.9857
B(  0-C , 10-H ) :   0.9834 B(  1-C ,  2-C ) :   0.9247 B(  1-C , 11-H ) :   0.9589
B(  1-C , 12-H ) :   0.9626 B(  2-C ,  3-C ) :   0.9632 B(  2-C , 13-H ) :   0.9763
B(  2-C , 14-H ) :   0.9812 B(  3-C ,  4-O ) :   1.8268 B(  3-C ,  5-O ) :   1.0538
B(  5-O ,  6-C ) :   0.7832 B(  6-C ,  7-C ) :   0.9469 B(  6-C , 15-H ) :   0.9482
B(  6-C , 16-H ) :   0.9659 B(  7-C , 17-H ) :   0.9682 B(  7-C , 18-H ) :   0.9733
B(  7-C , 19-H ) :   0.9702

Dispersion correction           -0.004869227
FINAL SINGLE POINT ENERGY      -386.234503442724

DIPOLE MOMENT
-------------

Method             : SCF
Type of density    : Electron Density
Multiplicity       :   1
Irrep              :   0
Energy             :  -386.2413361707413060 Eh
Relativity type    :
Basis              : AO
                                X                 Y                 Z
Electronic contribution:      2.985765125       5.276242773      -1.810304659
Nuclear contribution   :     -2.775286563      -6.104259454       1.698021564
                        -----------------------------------------
Total Dipole Moment    :      0.210478562      -0.828016682      -0.112283095
                        -----------------------------------------
Magnitude (a.u.)       :      0.861696201
Magnitude (Debye)      :      2.190257681

Rotational constants in cm-1:             0.133394             0.031448             0.027833
Rotational constants in MHz :          3999.057111           942.778941           834.427262

                             ****ORCA TERMINATED NORMALLY****
TOTAL RUN TIME: 0 days 0 hours 0 minutes 28 seconds 807 msec
