                         Program Version 6.0.0  -   RELEASE  -
|  1> ! r2scan-3c def2/J RI DEFGRID2 scfconv6 printgap
|  2> %output
|  3>     printlevel normal
|  4> end
|  5> %cpcm
|  6>     smd true
|  7>     smdsolvent "water"
|  8> end
|  9> * xyz 0 1
| 10> C -3.4009686842 -1.0288040232 0.1891100883
| 11> C -2.0429127085 -0.4417205173 0.5510502235
| 12> C -1.2904035407 0.0297899154 -0.7019851632
| 13> C 0.0185219308 0.6500596906 -0.2931429137
| 14> O 0.1383731289 1.766910315 0.1695379543
| 15> O 1.0290269218 -0.1884808946 -0.4640453458
| 16> C 2.3520477452 0.2125672613 -0.0658145667
| 17> C 3.0584507877 -0.9763668749 0.5608136023
| 18> H -3.9163944724 -1.3595480362 1.0865477588
| 19> H -4.0173218444 -0.2846416753 -0.3085839485
| 20> H -3.282143942 -1.8803831549 -0.4756829691
| 21> H -1.4423575234 -1.1937202745 1.0663721094
| 22> H -2.1709449094 0.4079889812 1.2248481152
| 23> H -1.8857863852 0.7830274646 -1.2181085756
| 24> H -1.094918913 -0.8137026223 -1.3622920655
| 25> H 2.8728549929 0.5502380068 -0.9665051696
| 26> H 2.2651576427 1.0516638223 0.6315653957
| 27> H 4.0747026278 -0.6947363315 0.8161507924
| 28> H 2.5397921819 -1.2930169115 1.4614152871
| 29> H 3.080707281 -1.8047000474 -0.1411360282
| 30> *
| 31>
| 32>                          ****END OF INPUT****

CARTESIAN COORDINATES (ANGSTROEM)
---------------------------------
  C     -3.400969   -1.028804    0.189110
  C     -2.042913   -0.441721    0.551050
  C     -1.290404    0.029790   -0.701985
  C      0.018522    0.650060   -0.293143
  O      0.138373    1.766910    0.169538
  O      1.029027   -0.188481   -0.464045
  C      2.352048    0.212567   -0.065815
  C      3.058451   -0.976367    0.560814
  H     -3.916394   -1.359548    1.086548
  H     -4.017322   -0.284642   -0.308584
  H     -3.282144   -1.880383   -0.475683
  H     -1.442358   -1.193720    1.066372
  H     -2.170945    0.407989    1.224848
  H     -1.885786    0.783027   -1.218109
  H     -1.094919   -0.813703   -1.362292
  H      2.872855    0.550238   -0.966505
  H      2.265158    1.051664    0.631565
  H      4.074703   -0.694736    0.816151
  H      2.539792   -1.293017    1.461415
  H      3.080707   -1.804700   -0.141136

 Total Charge           Charge          ....    0
 Multiplicity           Mult            ....    1
 Number of Electrons    NEL             ....   64
 Basis Dimension        Dim             ....  222

ORBITAL ENERGIES
----------------

  NO   OCC          E(Eh)            E(eV)
   0   2.0000     -19.002479      -517.0837
   1   2.0000     -18.941769      -515.4317
   2   2.0000     -10.161603      -276.5113
   3   2.0000     -10.082446      -274.3573
   4   2.0000     -10.034530      -273.0534
   5   2.0000     -10.030086      -272.9325
   6   2.0000     -10.018570      -272.6191
   7   2.0000     -10.011876      -272.4370
   8   2.0000      -1.078257       -29.3409
   9   2.0000      -0.987734       -26.8776
  10   2.0000      -0.769363       -20.9354
  11   2.0000      -0.735066       -20.0022
  12   2.0000      -0.673915       -18.3382
  13   2.0000      -0.609920       -16.5968
  14   2.0000      -0.559586       -15.2271
  15   2.0000      -0.529429       -14.4065
  16   2.0000      -0.469459       -12.7746
  17   2.0000      -0.458712       -12.4822
  18   2.0000      -0.447916       -12.1884
  19   2.0000      -0.425547       -11.5797
  20   2.0000      -0.402914       -10.9638
  21   2.0000      -0.372584       -10.1385
  22   2.0000      -0.371912       -10.1202
  23   2.0000      -0.361428        -9.8350
  24   2.0000      -0.353439        -9.6176
  25   2.0000      -0.332071        -9.0361
  26   2.0000      -0.321866        -8.7584
  27   2.0000      -0.309995        -8.4354
  28   2.0000      -0.302806        -8.2398
  29   2.0000      -0.299362        -8.1461
  30   2.0000      -0.275644        -7.5007
  31   2.0000      -0.249431        -6.7874
  32   0.0000      -0.021898        -0.5959
  33   0.0000       0.080007         2.1771
  34   0.0000       0.105708         2.8765
  35   0.0000       0.114402         3.1131
  36   0.0000       0.127873         3.4796

MULLIKEN ATOMIC CHARGES
-----------------------
   0 C :   -0.518099
   1 C :   -0.219593
   2 C :   -0.364940
   3 C :    0.458761
   4 O :   -0.525751
   5 O :   -0.188913
   6 C :   -0.149841
   7 C :   -0.487726
   8 H :    0.162263
   9 H :    0.159344
  10 H :    0.158739
  11 H :    0.155831
  12 H :    0.159088
  13 H :    0.180770
  14 H :    0.174688
  15 H :    0.169694
  16 H :    0.177660
  17 H :    0.168597
  18 H :    0.164412
  19 H :    0.165016
Sum of atomic charges:   -0.0000000

LOEWDIN ATOMIC CHARGES
----------------------
   0 C :   -0.425011
   1 C :   -0.285803
   2 C :   -0.227604
   3 C :    0.366827
   4 O :   -0.502157
   5 O :   -0.597638
   6 C :    0.036472
   7 C :   -0.390490
   8 H :    0.156335
   9 H :    0.154765
  10 H :    0.154889
  11 H :    0.160883
  12 H :    0.161508
  13 H :    0.184501
  14 H :    0.184194
  15 H :    0.184893
  16 H :    0.192478
  17 H :    0.167769
  18 H :    0.161250
  19 H :    0.161940

  Mayer bond orders larger than 0.100000
B(  0-C ,  1-C ) :   0.8874 B(  0-C ,  8-H ) :   0.9689 B(  0-C ,  9-H ) :   0.9830
B(  0-C , 10-H ) :   0.9808 B(  1-C ,  2-C ) :   0.9142 B(  1-C , 11-H ) :   0.9560
B(  1-C , 12-H ) :   0.9628 B(  2-C ,  3-C ) :   0.9622 B(  2-C , 13-H ) :   0.9707
B(  2-C , 14-H ) :   0.9718 B(  3-C ,  4-O ) :   1.7569 B(  3-C ,  5-O ) :   1.0808
B(  5-O ,  6-C ) :   0.7726 B(  6-C ,  7-C ) :   0.9430 B(  6-C , 15-H ) :   0.9396
B(  6-C , 16-H ) :   0.9615 B(  7-C , 17-H ) :   0.9620 B(  7-C , 18-H ) :   0.9709
B(  7-C , 19-H ) :   0.9675

Dispersion correction           -0.004869227
FINAL SINGLE POINT ENERGY      -386.239654713466

DIPOLE MOMENT
-------------

Method             : SCF
Type of density    : Electron Density
Multiplicity       :   1
Irrep              :   0
Energy             :  -386.2464874414838505 Eh
Relativity type    :
Basis              : AO
                                X                 Y                 Z
Electronic contribution:      3.059977808       4.945495166      -1.909081279
Nuclear contribution   :     -2.775286563      -6.104259454       1.698021564
                        -----------------------------------------
Total Dipole Moment    :      0.284691245      -1.158764288      -0.211059715
                        -----------------------------------------
Magnitude (a.u.)       :      1.211746667
Magnitude (Debye)      :      3.080015254

Rotational constants in cm-1:             0.133394             0.031448             0.027833
Rotational constants in MHz :          3999.057111           942.778941           834.427262

                             ****ORCA TERMINATED NORMALLY****
TOTAL RUN TIME: 0 days 0 hours 0 minutes 35 seconds 271 msec
