                         Program Version 6.0.0  -   RELEASE  -
|  1> ! r2scan-3c def2/J RI DEFGRID2 scfconv6 printgap
|  2> %output
|  3>     printlevel normal
|  4> end
|  5> * xyz 0 1
|  6> C -2.6751279968 0.0665925147 1.2123169765
|  7> C -2.5226692569 0.0120435505 -0.3029906574
|  8> C -1.2349127189 -0.7074613495 -0.7127657737
|  9> C -0.0182151763 0.0917977225 -0.3209486737
| 10> O 0.1332551918 1.2762233694 -0.5358809893
| 11> O 0.8801970726 -0.6634651181 0.3002988567
| 12> C 2.1192720903 -0.0603865252 0.7092117994
| 13> C 3.1376695873 -0.0775524613 -0.420395998
| 14> H -3.6000967341 0.5690110216 1.4823807683
| 15> H -2.6900411315 -0.9366806598 1.6314830316
| 16> H -1.8459811392 0.613903166 1.6572783589
| 17> H -2.4977036054 1.0264121954 -0.7055852218
| 18> H -3.3741795027 -0.510888156 -0.7388595022
| 19> H -1.2098732149 -0.8192348239 -1.7984520177
| 20> H -1.1674070643 -1.6920808556 -0.2516076524
| 21> H 1.9181220942 0.9663025519 1.0303325842
| 22> H 2.4525095255 -0.6638193288 1.5540080769
| 23> H 2.7859826083 0.5347594482 -1.2478714645
| 24> H 4.0798090074 0.3233897045 -0.0613604086
| 25> H 3.2898526227 -1.0945162261 -0.7715778973
| 26> *
| 27>
| 28>                          ****END OF INPUT****

CARTESIAN COORDINATES (ANGSTROEM)
---------------------------------
  C     -2.675128    0.066593    1.212317
  C     -2.522669    0.012044   -0.302991
  C     -1.234913   -0.707461   -0.712766
  C     -0.018215    0.091798   -0.320949
  O      0.133255    1.276223   -0.535881
  O      0.880197   -0.663465    0.300299
  C      2.119272   -0.060387    0.709212
  C      3.137670   -0.077552   -0.420396
  H     -3.600097    0.569011    1.482381
  H     -2.690041   -0.936681    1.631483
  H     -1.845981    0.613903    1.657278
  H     -2.497704    1.026412   -0.705585
  H     -3.374180   -0.510888   -0.738860
  H     -1.209873   -0.819235   -1.798452
  H     -1.167407   -1.692081   -0.251608
  H      1.918122    0.966303    1.030333
  H      2.452510   -0.663819    1.554008
  H      2.785983    0.534759   -1.247871
  H      4.079809    0.323390   -0.061360
  H      3.289853   -1.094516   -0.771578

 Total Charge           Charge          ....    0
 Multiplicity           Mult            ....    1
 Number of Electrons    NEL             ....   64
 Basis Dimension        Dim             ....  222

ORBITAL ENERGIES
----------------

  NO   OCC          E(Eh)            E(eV)
   0   2.0000     -18.996587      -516.9234
   1   2.0000     -18.927773      -515.0509
   2   2.0000     -10.151503      -276.2364
   3   2.0000     -10.090669      -274.5811
   4   2.0000     -10.040241      -273.2089
   5   2.0000     -10.032427      -272.9962
   6   2.0000     -10.028574      -272.8914
   7   2.0000     -10.018260      -272.6107
   8   2.0000      -1.070957       -29.1422
   9   2.0000      -0.975523       -26.5453
  10   2.0000      -0.772175       -21.0119
  11   2.0000      -0.739074       -20.1112
  12   2.0000      -0.677469       -18.4349
  13   2.0000      -0.624343       -16.9892
  14   2.0000      -0.564923       -15.3723
  15   2.0000      -0.518676       -14.1139
  16   2.0000      -0.473806       -12.8929
  17   2.0000      -0.455309       -12.3896
  18   2.0000      -0.441044       -12.0014
  19   2.0000      -0.418367       -11.3843
  20   2.0000      -0.411163       -11.1883
  21   2.0000      -0.389985       -10.6120
  22   2.0000      -0.376621       -10.2484
  23   2.0000      -0.364941        -9.9306
  24   2.0000      -0.350920        -9.5490
  25   2.0000      -0.343362        -9.3433
  26   2.0000      -0.316548        -8.6137
  27   2.0000      -0.309478        -8.4213
  28   2.0000      -0.307861        -8.3773
  29   2.0000      -0.302958        -8.2439
  30   2.0000      -0.271318        -7.3829
  31   2.0000      -0.236392        -6.4325
  32   0.0000      -0.015097        -0.4108
  33   0.0000       0.075099         2.0435
  34   0.0000       0.093246         2.5374
  35   0.0000       0.109107         2.9690
  36   0.0000       0.118506         3.2247

MULLIKEN ATOMIC CHARGES
-----------------------
   0 C :   -0.494856
   1 C :   -0.213082
   2 C :   -0.300524
   3 C :    0.348530
   4 O :   -0.430995
   5 O :   -0.174675
   6 C :   -0.136893
   7 C :   -0.470281
   8 H :    0.148304
   9 H :    0.145131
  10 H :    0.157117
  11 H :    0.161098
  12 H :    0.143322
  13 H :    0.166008
  14 H :    0.165621
  15 H :    0.167756
  16 H :    0.147697
  17 H :    0.172287
  18 H :    0.146868
  19 H :    0.151568
Sum of atomic charges:    0.0000000

LOEWDIN ATOMIC CHARGES
----------------------
   0 C :   -0.416650
   1 C :   -0.294611
   2 C :   -0.232007
   3 C :    0.355872
   4 O :   -0.439753
   5 O :   -0.595748
   6 C :    0.026389
   7 C :   -0.390269
   8 H :    0.152810
   9 H :    0.150017
  10 H :    0.156231
  11 H :    0.168408
  12 H :    0.152590
  13 H :    0.181971
  14 H :    0.177625
  15 H :    0.188015
  16 H :    0.177736
  17 H :    0.165252
  18 H :    0.159098
  19 H :    0.157025

  Mayer bond orders larger than 0.100000
B(  0-C ,  1-C ) :   0.9067 B(  0-C ,  8-H ) :   0.9690 B(  0-C ,  9-H ) :   0.9820
B(  0-C , 10-H ) :   0.9736 B(  1-C ,  2-C ) :   0.8906 B(  1-C , 11-H ) :   0.9651
B(  1-C , 12-H ) :   0.9653 B(  2-C ,  3-C ) :   0.9442 B(  2-C , 13-H ) :   0.9304
B(  2-C , 14-H ) :   1.0044 B(  3-C ,  4-O ) :   1.8311 B(  3-C ,  5-O ) :   1.0514
B(  5-O ,  6-C ) :   0.8205 B(  6-C ,  7-C ) :   0.9378 B(  6-C , 15-H ) :   0.9672
B(  6-C , 16-H ) :   0.9607 B(  7-C , 17-H ) :   0.9716 B(  7-C , 18-H ) :   0.9654
B(  7-C , 19-H ) :   0.9733

Dispersion correction           -0.005122161
FINAL SINGLE POINT ENERGY      -386.236795653757

DIPOLE MOMENT
-------------

Method             : SCF
Type of density    : Electron Density
Multiplicity       :   1
Irrep              :   0
Energy             :  -386.2434152613834044 Eh
Relativity type    :
Basis              : AO
                                X                 Y                 Z
Electronic contribution:      1.919795640       0.920524309      -1.468448322
Nuclear contribution   :     -1.729030384      -1.570263107       1.666601700
                        -----------------------------------------
Total Dipole Moment    :      0.190765256      -0.649738798       0.198153378
                        -----------------------------------------
Magnitude (a.u.)       :      0.705561230
Magnitude (Debye)      :      1.793394124

Rotational constants in cm-1:             0.159320             0.033566             0.032655
Rotational constants in MHz :          4776.304758          1006.272149           978.958909

                             ****ORCA TERMINATED NORMALLY****
TOTAL RUN TIME: 0 days 0 hours 0 minutes 33 seconds 262 msec
