                         Program Version 6.0.0  -   RELEASE  -
|  1> ! r2scan-3c def2/J RI DEFGRID2 scfconv6 printgap
|  2> %output
|  3>     printlevel normal
|  4> end
|  5> %cpcm
|  6>     smd true
|  7>     smdsolvent "water"
|  8> end
|  9> * xyz 0 1
| 10> C -2.6751279968 0.0665925147 1.2123169765
| 11> C -2.5226692569 0.0120435505 -0.3029906574
| 12> C -1.2349127189 -0.7074613495 -0.7127657737
| 13> C -0.0182151763 0.0917977225 -0.3209486737
| 14> O 0.1332551918 1.2762233694 -0.5358809893
| 15> O 0.8801970726 -0.6634651181 0.3002988567
| 16> C 2.1192720903 -0.0603865252 0.7092117994
| 17> C 3.1376695873 -0.0775524613 -0.420395998
| 18> H -3.6000967341 0.5690110216 1.4823807683
| 19> H -2.6900411315 -0.9366806598 1.6314830316
| 20> H -1.8459811392 0.613903166 1.6572783589
| 21> H -2.4977036054 1.0264121954 -0.7055852218
| 22> H -3.3741795027 -0.510888156 -0.7388595022
| 23> H -1.2098732149 -0.8192348239 -1.7984520177
| 24> H -1.1674070643 -1.6920808556 -0.2516076524
| 25> H 1.9181220942 0.9663025519 1.0303325842
| 26> H 2.4525095255 -0.6638193288 1.5540080769
| 27> H 2.7859826083 0.5347594482 -1.2478714645
| 28> H 4.0798090074 0.3233897045 -0.0613604086
| 29> H 3.2898526227 -1.0945162261 -0.7715778973
| 30> *
| 31>
| 32>                          ****END OF INPUT****

CARTESIAN COORDINATES (ANGSTROEM)
---------------------------------
  C     -2.675128    0.066593    1.212317
  C     -2.522669    0.012044   -0.302991
  C     -1.234913   -0.707461   -0.712766
  C     -0.018215    0.091798   -0.320949
  O      0.133255    1.276223   -0.535881
  O      0.880197   -0.663465    0.300299
  C      2.119272   -0.060387    0.709212
  C      3.137670   -0.077552   -0.420396
  H     -3.600097    0.569011    1.482381
  H     -2.690041   -0.936681    1.631483
  H     -1.845981    0.613903    1.657278
  H     -2.497704    1.026412   -0.705585
  H     -3.374180   -0.510888   -0.738860
  H     -1.209873   -0.819235   -1.798452
  H     -1.167407   -1.692081   -0.251608
  H      1.918122    0.966303    1.030333
  H      2.452510   -0.663819    1.554008
  H      2.785983    0.534759   -1.247871
  H      4.079809    0.323390   -0.061360
  H      3.289853   -1.094516   -0.771578

 Total Charge           Charge          ....    0
 Multiplicity           Mult            ....    1
 Number of Electrons    NEL             ....   64
 Basis Dimension        Dim             ....  222

ORBITAL ENERGIES
----------------

  NO   OCC          E(Eh)            E(eV)
   0   2.0000     -19.002635      -517.0880
   1   2.0000     -18.943367      -515.4752
   2   2.0000     -10.162186      -276.5271
   3   2.0000     -10.083042      -274.3735
   4   2.0000     -10.034936      -273.0645
   5   2.0000     -10.027190      -272.8537
   6   2.0000     -10.018313      -272.6121
   7   2.0000     -10.011223      -272.4192
   8   2.0000      -1.078568       -29.3493
   9   2.0000      -0.989033       -26.9130
  10   2.0000      -0.768555       -20.9134
  11   2.0000      -0.732867       -19.9423
  12   2.0000      -0.672494       -18.2995
  13   2.0000      -0.619524       -16.8581
  14   2.0000      -0.559359       -15.2209
  15   2.0000      -0.517635       -14.0856
  16   2.0000      -0.474219       -12.9041
  17   2.0000      -0.461388       -12.5550
  18   2.0000      -0.442223       -12.0335
  19   2.0000      -0.421360       -11.4658
  20   2.0000      -0.406189       -11.0530
  21   2.0000      -0.385930       -10.5017
  22   2.0000      -0.370209       -10.0739
  23   2.0000      -0.360918        -9.8211
  24   2.0000      -0.349927        -9.5220
  25   2.0000      -0.340021        -9.2524
  26   2.0000      -0.310440        -8.4475
  27   2.0000      -0.304952        -8.2982
  28   2.0000      -0.302844        -8.2408
  29   2.0000      -0.301022        -8.1912
  30   2.0000      -0.278794        -7.5864
  31   2.0000      -0.252322        -6.8660
  32   0.0000      -0.023089        -0.6283
  33   0.0000       0.077095         2.0979
  34   0.0000       0.100134         2.7248
  35   0.0000       0.118166         3.2155
  36   0.0000       0.126396         3.4394

MULLIKEN ATOMIC CHARGES
-----------------------
   0 C :   -0.528849
   1 C :   -0.223737
   2 C :   -0.315069
   3 C :    0.389070
   4 O :   -0.513238
   5 O :   -0.196780
   6 C :   -0.143208
   7 C :   -0.495353
   8 H :    0.161027
   9 H :    0.161293
  10 H :    0.161723
  11 H :    0.153476
  12 H :    0.162669
  13 H :    0.196426
  14 H :    0.180524
  15 H :    0.172049
  16 H :    0.173667
  17 H :    0.168490
  18 H :    0.170318
  19 H :    0.165502
Sum of atomic charges:    0.0000000

LOEWDIN ATOMIC CHARGES
----------------------
   0 C :   -0.423669
   1 C :   -0.294214
   2 C :   -0.228922
   3 C :    0.365772
   4 O :   -0.497951
   5 O :   -0.599135
   6 C :    0.030993
   7 C :   -0.393135
   8 H :    0.155993
   9 H :    0.155521
  10 H :    0.156099
  11 H :    0.163808
  12 H :    0.160183
  13 H :    0.192934
  14 H :    0.185036
  15 H :    0.189477
  16 H :    0.189066
  17 H :    0.162492
  18 H :    0.167737
  19 H :    0.161915

  Mayer bond orders larger than 0.100000
B(  0-C ,  1-C ) :   0.9019 B(  0-C ,  8-H ) :   0.9662 B(  0-C ,  9-H ) :   0.9781
B(  0-C , 10-H ) :   0.9715 B(  1-C ,  2-C ) :   0.8759 B(  1-C , 11-H ) :   0.9704
B(  1-C , 12-H ) :   0.9612 B(  2-C ,  3-C ) :   0.9480 B(  2-C , 13-H ) :   0.9227
B(  2-C , 14-H ) :   0.9939 B(  3-C ,  4-O ) :   1.7643 B(  3-C ,  5-O ) :   1.0735
B(  5-O ,  6-C ) :   0.8023 B(  6-C ,  7-C ) :   0.9366 B(  6-C , 15-H ) :   0.9633
B(  6-C , 16-H ) :   0.9513 B(  7-C , 17-H ) :   0.9693 B(  7-C , 18-H ) :   0.9603
B(  7-C , 19-H ) :   0.9694

Dispersion correction           -0.005122161
FINAL SINGLE POINT ENERGY      -386.241630503609

DIPOLE MOMENT
-------------

Method             : SCF
Type of density    : Electron Density
Multiplicity       :   1
Irrep              :   0
Energy             :  -386.2482501112352224 Eh
Relativity type    :
Basis              : AO
                                X                 Y                 Z
Electronic contribution:      1.965189936       0.569076773      -1.377370530
Nuclear contribution   :     -1.729030384      -1.570263107       1.666601700
                        -----------------------------------------
Total Dipole Moment    :      0.236159553      -1.001186334       0.289231170
                        -----------------------------------------
Magnitude (a.u.)       :      1.068550457
Magnitude (Debye)      :      2.716039415

Rotational constants in cm-1:             0.159320             0.033566             0.032655
Rotational constants in MHz :          4776.304758          1006.272149           978.958909

                             ****ORCA TERMINATED NORMALLY****
TOTAL RUN TIME: 0 days 0 hours 0 minutes 39 seconds 558 msec
