                         Program Version 6.0.0  -   RELEASE  -
|  1> ! pbe def2-sv(p) def2/J RI DEFGRID1 loosescf d4 GCP(DFT/SV(P)) printgap
|  2> %output
|  3>     printlevel normal
|  4> end
|  5> * xyz 0 1
|  6> C -2.6429634976 -1.237126594 -0.0336040253
|  7> C -2.5244242883 0.2820816752 -0.0163101852
|  8> C -1.24190089 0.7386792021 0.685147613
|  9> C -0.0225382812 0.3413474859 -0.1071604093
| 10> O 0.1380377444 0.560561806 -1.2897304587
| 11> O 0.864640663 -0.2923992065 0.650597258
| 12> C 2.1030291458 -0.7132125943 0.0544992082
| 13> C 3.1442695718 0.3937637531 0.1154666485
| 14> H -3.5676806296 -1.5396594666 -0.5175328261
| 15> H -1.8108416753 -1.6763857803 -0.5809778126
| 16> H -2.6355114106 -1.6329365443 0.9791548176
| 17> H -3.3820841357 0.7110431939 0.502320386
| 18> H -2.5154388521 0.6610132973 -1.0400326731
| 19> H -1.1637726717 0.3090532971 1.683125003
| 20> H -1.2374586609 1.8275866086 0.7611417458
| 21> H 2.410104454 -1.5800855598 0.640355397
| 22> H 1.9098705223 -1.0037101594 -0.982787474
| 23> H 4.0852752337 0.0246487175 -0.2790366249
| 24> H 2.8200325031 1.243250762 -0.4816600931
| 25> H 3.2868462994 0.716806009 1.1430986272
| 26> *
| 27>
| 28>                          ****END OF INPUT****

CARTESIAN COORDINATES (ANGSTROEM)
---------------------------------
  C     -2.642963   -1.237127   -0.033604
  C     -2.524424    0.282082   -0.016310
  C     -1.241901    0.738679    0.685148
  C     -0.022538    0.341347   -0.107160
  O      0.138038    0.560562   -1.289730
  O      0.864641   -0.292399    0.650597
  C      2.103029   -0.713213    0.054499
  C      3.144270    0.393764    0.115467
  H     -3.567681   -1.539659   -0.517533
  H     -1.810842   -1.676386   -0.580978
  H     -2.635511   -1.632937    0.979155
  H     -3.382084    0.711043    0.502320
  H     -2.515439    0.661013   -1.040033
  H     -1.163773    0.309053    1.683125
  H     -1.237459    1.827587    0.761142
  H      2.410104   -1.580086    0.640355
  H      1.909871   -1.003710   -0.982787
  H      4.085275    0.024649   -0.279037
  H      2.820033    1.243251   -0.481660
  H      3.286846    0.716806    1.143099

 Total Charge           Charge          ....    0
 Multiplicity           Mult            ....    1
 Number of Electrons    NEL             ....   64
 Basis Dimension        Dim             ....  136

ORBITAL ENERGIES
----------------

  NO   OCC          E(Eh)            E(eV)
   0   2.0000     -18.797726      -511.5121
   1   2.0000     -18.731324      -509.7052
   2   2.0000     -10.004747      -272.2430
   3   2.0000      -9.946072      -270.6464
   4   2.0000      -9.895824      -269.2791
   5   2.0000      -9.890008      -269.1208
   6   2.0000      -9.887053      -269.0404
   7   2.0000      -9.876165      -268.7441
   8   2.0000      -1.003833       -27.3157
   9   2.0000      -0.908624       -24.7249
  10   2.0000      -0.726792       -19.7770
  11   2.0000      -0.696406       -18.9502
  12   2.0000      -0.636499       -17.3200
  13   2.0000      -0.590504       -16.0684
  14   2.0000      -0.531440       -14.4612
  15   2.0000      -0.492822       -13.4104
  16   2.0000      -0.452657       -12.3174
  17   2.0000      -0.432781       -11.7766
  18   2.0000      -0.422686       -11.5019
  19   2.0000      -0.396701       -10.7948
  20   2.0000      -0.391614       -10.6564
  21   2.0000      -0.374435       -10.1889
  22   2.0000      -0.361338        -9.8325
  23   2.0000      -0.349981        -9.5235
  24   2.0000      -0.338068        -9.1993
  25   2.0000      -0.329578        -8.9683
  26   2.0000      -0.304470        -8.2850
  27   2.0000      -0.297711        -8.1011
  28   2.0000      -0.296266        -8.0618
  29   2.0000      -0.287294        -7.8177
  30   2.0000      -0.255566        -6.9543
  31   2.0000      -0.218189        -5.9372
  32   0.0000      -0.020350        -0.5537
  33   0.0000       0.041449         1.1279
  34   0.0000       0.055198         1.5020
  35   0.0000       0.076050         2.0694
  36   0.0000       0.081275         2.2116

MULLIKEN ATOMIC CHARGES
-----------------------
   0 C :   -0.289469
   1 C :   -0.198489
   2 C :   -0.125195
   3 C :    0.092464
   4 O :   -0.212886
   5 O :   -0.234654
   6 C :   -0.015194
   7 C :   -0.303140
   8 H :    0.107539
   9 H :    0.116335
  10 H :    0.098685
  11 H :    0.090513
  12 H :    0.108410
  13 H :    0.092755
  14 H :    0.113181
  15 H :    0.101163
  16 H :    0.107447
  17 H :    0.111969
  18 H :    0.125633
  19 H :    0.112933
Sum of atomic charges:   -0.0000000

LOEWDIN ATOMIC CHARGES
----------------------
   0 C :   -0.342382
   1 C :   -0.227921
   2 C :   -0.247373
   3 C :    0.037221
   4 O :   -0.174559
   5 O :   -0.066010
   6 C :   -0.114085
   7 C :   -0.355667
   8 H :    0.121524
   9 H :    0.120705
  10 H :    0.117115
  11 H :    0.117771
  12 H :    0.124905
  13 H :    0.126624
  14 H :    0.142239
  15 H :    0.116701
  16 H :    0.118849
  17 H :    0.130039
  18 H :    0.130145
  19 H :    0.124159

  Mayer bond orders larger than 0.100000
B(  0-C ,  1-C ) :   1.1545 B(  0-C ,  8-H ) :   0.9522 B(  0-C ,  9-H ) :   0.9497
B(  0-C , 10-H ) :   0.9537 B(  1-C ,  2-C ) :   1.1115 B(  1-C , 11-H ) :   0.9278
B(  1-C , 12-H ) :   0.9191 B(  2-C ,  3-C ) :   1.0180 B(  2-C , 13-H ) :   0.9107
B(  2-C , 14-H ) :   0.8922 B(  3-C ,  4-O ) :   2.0315 B(  3-C ,  5-O ) :   1.2196
B(  5-O ,  6-C ) :   0.9234 B(  6-C ,  7-C ) :   1.1730 B(  6-C , 15-H ) :   0.9371
B(  6-C , 16-H ) :   0.9129 B(  7-C , 17-H ) :   0.9446 B(  7-C , 18-H ) :   0.9467
B(  7-C , 19-H ) :   0.9493

Dispersion correction           -0.015228525
FINAL SINGLE POINT ENERGY      -385.458644807327

DIPOLE MOMENT
-------------

Method             : SCF
Type of density    : Electron Density
Multiplicity       :   1
Irrep              :   0
Energy             :  -385.5336188680722671 Eh
Relativity type    :
Basis              : AO
                                X                 Y                 Z
Electronic contribution:      1.892033248       1.616420479      -1.120607825
Nuclear contribution   :     -1.674450448      -1.815481268       1.704711441
                        -----------------------------------------
Total Dipole Moment    :      0.217582799      -0.199060789       0.584103616
                        -----------------------------------------
Magnitude (a.u.)       :      0.654327522
Magnitude (Debye)      :      1.663168387

Rotational constants in cm-1:             0.157100             0.033798             0.032718
Rotational constants in MHz :          4709.751859          1013.243630           980.849071

                             ****ORCA TERMINATED NORMALLY****
TOTAL RUN TIME: 0 days 0 hours 0 minutes 10 seconds 562 msec
