                         Program Version 6.0.0  -   RELEASE  -
|  1> ! r2scan-3c def2/J RI DEFGRID2 scfconv6 printgap
|  2> %output
|  3>     printlevel normal
|  4> end
|  5> * xyz 0 1
|  6> C -2.3257449468 -1.388714109 0.3921039171
|  7> C -2.5131408775 0.050335514 -0.0731977077
|  8> C -1.3103743856 0.5413194003 -0.8824350168
|  9> C -0.0788627046 0.6552121445 -0.0197390312
| 10> O -0.0516342774 1.1472990136 1.0896207576
| 11> O 0.985495152 0.1569927634 -0.6337381305
| 12> C 2.2602550241 0.1676614521 0.0323300868
| 13> C 2.8495714316 -1.2326846808 0.0108500739
| 14> H -3.2002475045 -1.7262622184 0.941763724
| 15> H -2.173406501 -2.0496359468 -0.4578574028
| 16> H -1.4603933299 -1.4635541373 1.0481010417
| 17> H -2.6387587156 0.7011902926 0.7940195459
| 18> H -3.4080496262 0.1228363431 -0.691557034
| 19> H -1.5180643258 1.5381743714 -1.2765154323
| 20> H -1.0907881392 -0.1281337675 -1.7134364373
| 21> H 2.8946059436 0.8684613431 -0.5165553602
| 22> H 2.1148021618 0.5304674566 1.0545188753
| 23> H 2.2152382963 -1.9189070324 0.5658264225
| 24> H 2.9327325173 -1.5827838518 -1.0139328122
| 25> H 3.834804756 -1.2140742425 0.4650936626
| 26> *
| 27>
| 28>                          ****END OF INPUT****

CARTESIAN COORDINATES (ANGSTROEM)
---------------------------------
  C     -2.325745   -1.388714    0.392104
  C     -2.513141    0.050336   -0.073198
  C     -1.310374    0.541319   -0.882435
  C     -0.078863    0.655212   -0.019739
  O     -0.051634    1.147299    1.089621
  O      0.985495    0.156993   -0.633738
  C      2.260255    0.167661    0.032330
  C      2.849571   -1.232685    0.010850
  H     -3.200248   -1.726262    0.941764
  H     -2.173407   -2.049636   -0.457857
  H     -1.460393   -1.463554    1.048101
  H     -2.638759    0.701190    0.794020
  H     -3.408050    0.122836   -0.691557
  H     -1.518064    1.538174   -1.276515
  H     -1.090788   -0.128134   -1.713436
  H      2.894606    0.868461   -0.516555
  H      2.114802    0.530467    1.054519
  H      2.215238   -1.918907    0.565826
  H      2.932733   -1.582784   -1.013933
  H      3.834805   -1.214074    0.465094

 Total Charge           Charge          ....    0
 Multiplicity           Mult            ....    1
 Number of Electrons    NEL             ....   64
 Basis Dimension        Dim             ....  222

ORBITAL ENERGIES
----------------

  NO   OCC          E(Eh)            E(eV)
   0   2.0000     -18.996728      -516.9273
   1   2.0000     -18.926891      -515.0269
   2   2.0000     -10.151801      -276.2446
   3   2.0000     -10.089618      -274.5525
   4   2.0000     -10.040306      -273.2106
   5   2.0000     -10.031877      -272.9812
   6   2.0000     -10.031744      -272.9776
   7   2.0000     -10.018060      -272.6053
   8   2.0000      -1.070631       -29.1333
   9   2.0000      -0.975116       -26.5343
  10   2.0000      -0.772236       -21.0136
  11   2.0000      -0.741994       -20.1907
  12   2.0000      -0.677410       -18.4333
  13   2.0000      -0.620998       -16.8982
  14   2.0000      -0.564397       -15.3580
  15   2.0000      -0.524839       -14.2816
  16   2.0000      -0.471270       -12.8239
  17   2.0000      -0.460148       -12.5213
  18   2.0000      -0.441731       -12.0201
  19   2.0000      -0.420468       -11.4415
  20   2.0000      -0.404994       -11.0204
  21   2.0000      -0.388643       -10.5755
  22   2.0000      -0.376005       -10.2316
  23   2.0000      -0.368256       -10.0208
  24   2.0000      -0.353626        -9.6226
  25   2.0000      -0.342958        -9.3324
  26   2.0000      -0.315736        -8.5916
  27   2.0000      -0.309777        -8.4295
  28   2.0000      -0.307499        -8.3675
  29   2.0000      -0.303211        -8.2508
  30   2.0000      -0.269862        -7.3433
  31   2.0000      -0.236551        -6.4369
  32   0.0000      -0.013770        -0.3747
  33   0.0000       0.075876         2.0647
  34   0.0000       0.091986         2.5031
  35   0.0000       0.107793         2.9332
  36   0.0000       0.123048         3.3483

MULLIKEN ATOMIC CHARGES
-----------------------
   0 C :   -0.498796
   1 C :   -0.207395
   2 C :   -0.304131
   3 C :    0.355009
   4 O :   -0.434441
   5 O :   -0.165986
   6 C :   -0.168457
   7 C :   -0.443164
   8 H :    0.148201
   9 H :    0.144805
  10 H :    0.157678
  11 H :    0.160177
  12 H :    0.142675
  13 H :    0.167846
  14 H :    0.164306
  15 H :    0.142322
  16 H :    0.187565
  17 H :    0.151393
  18 H :    0.153595
  19 H :    0.146798
Sum of atomic charges:   -0.0000000

LOEWDIN ATOMIC CHARGES
----------------------
   0 C :   -0.417291
   1 C :   -0.295562
   2 C :   -0.232079
   3 C :    0.359259
   4 O :   -0.446671
   5 O :   -0.596652
   6 C :    0.029745
   7 C :   -0.387126
   8 H :    0.152884
   9 H :    0.149668
  10 H :    0.156526
  11 H :    0.168693
  12 H :    0.152554
  13 H :    0.182500
  14 H :    0.177784
  15 H :    0.174968
  16 H :    0.195544
  17 H :    0.158195
  18 H :    0.158092
  19 H :    0.158970

  Mayer bond orders larger than 0.100000
B(  0-C ,  1-C ) :   0.9061 B(  0-C ,  8-H ) :   0.9685 B(  0-C ,  9-H ) :   0.9826
B(  0-C , 10-H ) :   0.9742 B(  1-C ,  2-C ) :   0.8948 B(  1-C , 11-H ) :   0.9637
B(  1-C , 12-H ) :   0.9651 B(  2-C ,  3-C ) :   0.9520 B(  2-C , 13-H ) :   0.9331
B(  2-C , 14-H ) :   0.9982 B(  3-C ,  4-O ) :   1.8398 B(  3-C ,  5-O ) :   1.0615
B(  5-O ,  6-C ) :   0.7833 B(  6-C ,  7-C ) :   0.9489 B(  6-C , 15-H ) :   0.9533
B(  6-C , 16-H ) :   0.9668 B(  7-C , 17-H ) :   0.9714 B(  7-C , 18-H ) :   0.9722
B(  7-C , 19-H ) :   0.9673

Dispersion correction           -0.005071202
FINAL SINGLE POINT ENERGY      -386.235437652100

DIPOLE MOMENT
-------------

Method             : SCF
Type of density    : Electron Density
Multiplicity       :   1
Irrep              :   0
Energy             :  -386.2421843203533172 Eh
Relativity type    :
Basis              : AO
                                X                 Y                 Z
Electronic contribution:      1.666929465       5.490222005       0.153105255
Nuclear contribution   :     -1.391080141      -5.911957315      -0.744271816
                        -----------------------------------------
Total Dipole Moment    :      0.275849324      -0.421735310      -0.591166561
                        -----------------------------------------
Magnitude (a.u.)       :      0.776808486
Magnitude (Debye)      :      1.974490256

Rotational constants in cm-1:             0.120207             0.036277             0.033054
Rotational constants in MHz :          3603.722230          1087.566831           990.924564

                             ****ORCA TERMINATED NORMALLY****
TOTAL RUN TIME: 0 days 0 hours 0 minutes 31 seconds 176 msec
