                         Program Version 6.0.0  -   RELEASE  -
|  1> ! r2scan-3c def2/J RI DEFGRID2 scfconv6 printgap
|  2> %output
|  3>     printlevel normal
|  4> end
|  5> %cpcm
|  6>     smd true
|  7>     smdsolvent "water"
|  8> end
|  9> * xyz 0 1
| 10> C -2.3257449468 -1.388714109 0.3921039171
| 11> C -2.5131408775 0.050335514 -0.0731977077
| 12> C -1.3103743856 0.5413194003 -0.8824350168
| 13> C -0.0788627046 0.6552121445 -0.0197390312
| 14> O -0.0516342774 1.1472990136 1.0896207576
| 15> O 0.985495152 0.1569927634 -0.6337381305
| 16> C 2.2602550241 0.1676614521 0.0323300868
| 17> C 2.8495714316 -1.2326846808 0.0108500739
| 18> H -3.2002475045 -1.7262622184 0.941763724
| 19> H -2.173406501 -2.0496359468 -0.4578574028
| 20> H -1.4603933299 -1.4635541373 1.0481010417
| 21> H -2.6387587156 0.7011902926 0.7940195459
| 22> H -3.4080496262 0.1228363431 -0.691557034
| 23> H -1.5180643258 1.5381743714 -1.2765154323
| 24> H -1.0907881392 -0.1281337675 -1.7134364373
| 25> H 2.8946059436 0.8684613431 -0.5165553602
| 26> H 2.1148021618 0.5304674566 1.0545188753
| 27> H 2.2152382963 -1.9189070324 0.5658264225
| 28> H 2.9327325173 -1.5827838518 -1.0139328122
| 29> H 3.834804756 -1.2140742425 0.4650936626
| 30> *
| 31>
| 32>                          ****END OF INPUT****

CARTESIAN COORDINATES (ANGSTROEM)
---------------------------------
  C     -2.325745   -1.388714    0.392104
  C     -2.513141    0.050336   -0.073198
  C     -1.310374    0.541319   -0.882435
  C     -0.078863    0.655212   -0.019739
  O     -0.051634    1.147299    1.089621
  O      0.985495    0.156993   -0.633738
  C      2.260255    0.167661    0.032330
  C      2.849571   -1.232685    0.010850
  H     -3.200248   -1.726262    0.941764
  H     -2.173407   -2.049636   -0.457857
  H     -1.460393   -1.463554    1.048101
  H     -2.638759    0.701190    0.794020
  H     -3.408050    0.122836   -0.691557
  H     -1.518064    1.538174   -1.276515
  H     -1.090788   -0.128134   -1.713436
  H      2.894606    0.868461   -0.516555
  H      2.114802    0.530467    1.054519
  H      2.215238   -1.918907    0.565826
  H      2.932733   -1.582784   -1.013933
  H      3.834805   -1.214074    0.465094

 Total Charge           Charge          ....    0
 Multiplicity           Mult            ....    1
 Number of Electrons    NEL             ....   64
 Basis Dimension        Dim             ....  222

ORBITAL ENERGIES
----------------

  NO   OCC          E(Eh)            E(eV)
   0   2.0000     -19.002497      -517.0842
   1   2.0000     -18.942514      -515.4520
   2   2.0000     -10.162489      -276.5354
   3   2.0000     -10.081920      -274.3430
   4   2.0000     -10.034978      -273.0656
   5   2.0000     -10.026733      -272.8413
   6   2.0000     -10.018493      -272.6171
   7   2.0000     -10.011038      -272.4142
   8   2.0000      -1.077997       -29.3338
   9   2.0000      -0.988665       -26.9029
  10   2.0000      -0.768483       -20.9115
  11   2.0000      -0.734725       -19.9929
  12   2.0000      -0.671948       -18.2846
  13   2.0000      -0.614875       -16.7316
  14   2.0000      -0.558510       -15.1978
  15   2.0000      -0.523867       -14.2551
  16   2.0000      -0.473043       -12.8722
  17   2.0000      -0.459879       -12.5139
  18   2.0000      -0.447873       -12.1872
  19   2.0000      -0.421472       -11.4688
  20   2.0000      -0.400305       -10.8928
  21   2.0000      -0.384540       -10.4639
  22   2.0000      -0.367244        -9.9932
  23   2.0000      -0.362025        -9.8512
  24   2.0000      -0.352841        -9.6013
  25   2.0000      -0.337678        -9.1887
  26   2.0000      -0.309820        -8.4306
  27   2.0000      -0.305385        -8.3100
  28   2.0000      -0.302927        -8.2431
  29   2.0000      -0.301760        -8.2113
  30   2.0000      -0.276435        -7.5222
  31   2.0000      -0.252385        -6.8678
  32   0.0000      -0.021718        -0.5910
  33   0.0000       0.077938         2.1208
  34   0.0000       0.099757         2.7145
  35   0.0000       0.117924         3.2089
  36   0.0000       0.131215         3.5705

MULLIKEN ATOMIC CHARGES
-----------------------
   0 C :   -0.529768
   1 C :   -0.221334
   2 C :   -0.317164
   3 C :    0.390234
   4 O :   -0.517327
   5 O :   -0.187065
   6 C :   -0.155181
   7 C :   -0.484895
   8 H :    0.160893
   9 H :    0.161042
  10 H :    0.161210
  11 H :    0.152565
  12 H :    0.161991
  13 H :    0.198409
  14 H :    0.179806
  15 H :    0.168609
  16 H :    0.180747
  17 H :    0.163303
  18 H :    0.165585
  19 H :    0.168340
Sum of atomic charges:   -0.0000000

LOEWDIN ATOMIC CHARGES
----------------------
   0 C :   -0.424043
   1 C :   -0.295467
   2 C :   -0.229163
   3 C :    0.368816
   4 O :   -0.506269
   5 O :   -0.599073
   6 C :    0.035357
   7 C :   -0.390536
   8 H :    0.155997
   9 H :    0.155443
  10 H :    0.156181
  11 H :    0.163867
  12 H :    0.160152
  13 H :    0.193473
  14 H :    0.185413
  15 H :    0.185644
  16 H :    0.194205
  17 H :    0.160948
  18 H :    0.161623
  19 H :    0.167433

  Mayer bond orders larger than 0.100000
B(  0-C ,  1-C ) :   0.9034 B(  0-C ,  8-H ) :   0.9660 B(  0-C ,  9-H ) :   0.9784
B(  0-C , 10-H ) :   0.9717 B(  1-C ,  2-C ) :   0.8789 B(  1-C , 11-H ) :   0.9697
B(  1-C , 12-H ) :   0.9607 B(  2-C ,  3-C ) :   0.9547 B(  2-C , 13-H ) :   0.9248
B(  2-C , 14-H ) :   0.9874 B(  3-C ,  4-O ) :   1.7738 B(  3-C ,  5-O ) :   1.0860
B(  5-O ,  6-C ) :   0.7730 B(  6-C ,  7-C ) :   0.9434 B(  6-C , 15-H ) :   0.9450
B(  6-C , 16-H ) :   0.9621 B(  7-C , 17-H ) :   0.9687 B(  7-C , 18-H ) :   0.9697
B(  7-C , 19-H ) :   0.9614

Dispersion correction           -0.005071202
FINAL SINGLE POINT ENERGY      -386.240111197989

DIPOLE MOMENT
-------------

Method             : SCF
Type of density    : Electron Density
Multiplicity       :   1
Irrep              :   0
Energy             :  -386.2468578662421805 Eh
Relativity type    :
Basis              : AO
                                X                 Y                 Z
Electronic contribution:      1.754044690       5.336987049      -0.163589300
Nuclear contribution   :     -1.391080141      -5.911957315      -0.744271816
                        -----------------------------------------
Total Dipole Moment    :      0.362964549      -0.574970265      -0.907861116
                        -----------------------------------------
Magnitude (a.u.)       :      1.134260057
Magnitude (Debye)      :      2.883059944

Rotational constants in cm-1:             0.120207             0.036277             0.033054
Rotational constants in MHz :          3603.722230          1087.566831           990.924564

                             ****ORCA TERMINATED NORMALLY****
TOTAL RUN TIME: 0 days 0 hours 0 minutes 38 seconds 123 msec
