                         Program Version 6.0.0  -   RELEASE  -
|  1> ! pbe def2-sv(p) def2/J RI DEFGRID1 loosescf d4 GCP(DFT/SV(P)) printgap
|  2> %output
|  3>     printlevel normal
|  4> end
|  5> * xyz 0 1
|  6> C -3.1599455475 -0.7750680334 -0.0606203272
|  7> C -2.2662667835 0.3067198059 -0.6571280451
|  8> C -1.4102118091 1.0211368626 0.3902117919
|  9> C -0.2891897306 0.1535971145 0.9737408834
| 10> C 0.8511830081 -0.0694417447 0.0149220532
| 11> O 0.7555139449 -0.2767961429 -1.1760920724
| 12> O 2.016027815 -0.0192044607 0.6571074417
| 13> C 3.227302746 -0.2385304064 -0.0729300975
| 14> H -3.7913899274 -0.3586735159 0.7211314001
| 15> H -3.7998966862 -1.1970537863 -0.8314026423
| 16> H -2.5714763203 -1.5845551506 0.3638329955
| 17> H -1.6135630227 -0.1272745029 -1.4155965939
| 18> H -2.8965233002 1.0508277477 -1.1484533362
| 19> H -2.0512073798 1.3470661235 1.2111822238
| 20> H -0.9656058736 1.9098277561 -0.0623282655
| 21> H -0.6851991346 -0.8280324714 1.2404780185
| 22> H 0.1228312765 0.6084217164 1.8743854926
| 23> H 2.9959578942 -0.4565267858 -1.1162011705
| 24> H 3.7429883465 -1.0779165658 0.389289751
| 25> H 3.8298323931 0.6647638519 0.002591182
| 26> *
| 27>
| 28>                          ****END OF INPUT****

CARTESIAN COORDINATES (ANGSTROEM)
---------------------------------
  C     -3.159946   -0.775068   -0.060620
  C     -2.266267    0.306720   -0.657128
  C     -1.410212    1.021137    0.390212
  C     -0.289190    0.153597    0.973741
  C      0.851183   -0.069442    0.014922
  O      0.755514   -0.276796   -1.176092
  O      2.016028   -0.019204    0.657107
  C      3.227303   -0.238530   -0.072930
  H     -3.791390   -0.358674    0.721131
  H     -3.799897   -1.197054   -0.831403
  H     -2.571476   -1.584555    0.363833
  H     -1.613563   -0.127275   -1.415597
  H     -2.896523    1.050828   -1.148453
  H     -2.051207    1.347066    1.211182
  H     -0.965606    1.909828   -0.062328
  H     -0.685199   -0.828032    1.240478
  H      0.122831    0.608422    1.874385
  H      2.995958   -0.456527   -1.116201
  H      3.742988   -1.077917    0.389290
  H      3.829832    0.664764    0.002591

 Total Charge           Charge          ....    0
 Multiplicity           Mult            ....    1
 Number of Electrons    NEL             ....   64
 Basis Dimension        Dim             ....  136

ORBITAL ENERGIES
----------------

  NO   OCC          E(Eh)            E(eV)
   0   2.0000     -18.799017      -511.5473
   1   2.0000     -18.735830      -509.8279
   2   2.0000     -10.006252      -272.2840
   3   2.0000      -9.938485      -270.4399
   4   2.0000      -9.896132      -269.2875
   5   2.0000      -9.888059      -269.0678
   6   2.0000      -9.874521      -268.6994
   7   2.0000      -9.870749      -268.5967
   8   2.0000      -1.004453       -27.3325
   9   2.0000      -0.911276       -24.7971
  10   2.0000      -0.727321       -19.7914
  11   2.0000      -0.683268       -18.5927
  12   2.0000      -0.642202       -17.4752
  13   2.0000      -0.581683       -15.8284
  14   2.0000      -0.517747       -14.0886
  15   2.0000      -0.498109       -13.5542
  16   2.0000      -0.449255       -12.2248
  17   2.0000      -0.433038       -11.7836
  18   2.0000      -0.422171       -11.4879
  19   2.0000      -0.404923       -11.0185
  20   2.0000      -0.400078       -10.8867
  21   2.0000      -0.372059       -10.1242
  22   2.0000      -0.365069        -9.9340
  23   2.0000      -0.341376        -9.2893
  24   2.0000      -0.336657        -9.1609
  25   2.0000      -0.324204        -8.8220
  26   2.0000      -0.298629        -8.1261
  27   2.0000      -0.289394        -7.8748
  28   2.0000      -0.282882        -7.6976
  29   2.0000      -0.279497        -7.6055
  30   2.0000      -0.256557        -6.9813
  31   2.0000      -0.219483        -5.9724
  32   0.0000      -0.019603        -0.5334
  33   0.0000       0.041286         1.1234
  34   0.0000       0.059116         1.6086
  35   0.0000       0.067068         1.8250
  36   0.0000       0.079372         2.1598

MULLIKEN ATOMIC CHARGES
-----------------------
   0 C :   -0.294728
   1 C :   -0.189400
   2 C :   -0.159720
   3 C :   -0.162407
   4 C :    0.103525
   5 O :   -0.197391
   6 O :   -0.241802
   7 C :   -0.133964
   8 H :    0.093807
   9 H :    0.104608
  10 H :    0.102673
  11 H :    0.117425
  12 H :    0.082290
  13 H :    0.083636
  14 H :    0.091974
  15 H :    0.119941
  16 H :    0.100369
  17 H :    0.134129
  18 H :    0.122366
  19 H :    0.122668
Sum of atomic charges:   -0.0000000

LOEWDIN ATOMIC CHARGES
----------------------
   0 C :   -0.343025
   1 C :   -0.243553
   2 C :   -0.217915
   3 C :   -0.249841
   4 C :    0.042482
   5 O :   -0.166639
   6 O :   -0.075784
   7 C :   -0.210768
   8 H :    0.113897
   9 H :    0.121236
  10 H :    0.113526
  11 H :    0.125178
  12 H :    0.115370
  13 H :    0.116410
  14 H :    0.120023
  15 H :    0.142028
  16 H :    0.132091
  17 H :    0.124213
  18 H :    0.120528
  19 H :    0.120544

  Mayer bond orders larger than 0.100000
B(  0-C ,  1-C ) :   1.1514 B(  0-C ,  8-H ) :   0.9544 B(  0-C ,  9-H ) :   0.9517
B(  0-C , 10-H ) :   0.9492 B(  1-C ,  2-C ) :   1.1153 B(  1-C , 11-H ) :   0.9143
B(  1-C , 12-H ) :   0.9236 B(  2-C ,  3-C ) :   1.1004 B(  2-C , 13-H ) :   0.9237
B(  2-C , 14-H ) :   0.9277 B(  3-C ,  4-C ) :   1.0171 B(  3-C , 15-H ) :   0.8881
B(  3-C , 16-H ) :   0.9067 B(  4-C ,  5-O ) :   2.0450 B(  4-C ,  6-O ) :   1.2183
B(  6-O ,  7-C ) :   0.9366 B(  7-C , 17-H ) :   0.9282 B(  7-C , 18-H ) :   0.9606
B(  7-C , 19-H ) :   0.9608

Dispersion correction           -0.015280053
FINAL SINGLE POINT ENERGY      -385.450642081425

DIPOLE MOMENT
-------------

Method             : SCF
Type of density    : Electron Density
Multiplicity       :   1
Irrep              :   0
Energy             :  -385.5261391288779009 Eh
Relativity type    :
Basis              : AO
                                X                 Y                 Z
Electronic contribution:      7.556883192       0.117247273      -0.618691305
Nuclear contribution   :     -7.167074032      -0.050477133       1.145225961
                        -----------------------------------------
Total Dipole Moment    :      0.389809160       0.066770141       0.526534655
                        -----------------------------------------
Magnitude (a.u.)       :      0.658519685
Magnitude (Debye)      :      1.673824019

Rotational constants in cm-1:             0.175054             0.031354             0.029585
Rotational constants in MHz :          5247.994015           939.958090           886.930107

                             ****ORCA TERMINATED NORMALLY****
TOTAL RUN TIME: 0 days 0 hours 0 minutes 9 seconds 631 msec
