                         Program Version 6.0.0  -   RELEASE  -
|  1> ! r2scan-3c def2/J RI DEFGRID2 scfconv6 printgap
|  2> %output
|  3>     printlevel normal
|  4> end
|  5> * xyz 0 1
|  6> C -3.2903147431 -0.8699559781 0.303010661
|  7> C -1.8870050914 -0.6146570064 -0.2335420643
|  8> C -1.5028124633 0.859509803 -0.1240517625
|  9> C -0.1156429486 1.1339900641 -0.7132397207
| 10> C 0.9543223233 0.4525409805 0.0997437643
| 11> O 1.110073099 0.5884457475 1.2954932366
| 12> O 1.7137016571 -0.3302925967 -0.6578159377
| 13> C 2.7909455429 -1.0525143827 -0.0526073815
| 14> H -3.3546557617 -0.5814729761 1.3496214602
| 15> H -4.0214845904 -0.2928598206 -0.2578981302
| 16> H -3.5448322442 -1.9233716848 0.2201413342
| 17> H -1.1674929901 -1.2156491012 0.3286704066
| 18> H -1.8344486457 -0.9256187428 -1.2791098225
| 19> H -1.5025068901 1.1583537802 0.9262132491
| 20> H -2.2380841972 1.4666578552 -0.6533275022
| 21> H 0.0834063243 2.2064555725 -0.682787414
| 22> H -0.0491385323 0.7822429049 -1.7420325342
| 23> H 3.7284401521 -0.572855035 -0.3311265978
| 24> H 2.7520301852 -2.0659086846 -0.4445931381
| 25> H 2.6766393107 -1.0484309922 1.0320600412
| 26> *
| 27>
| 28>                          ****END OF INPUT****

CARTESIAN COORDINATES (ANGSTROEM)
---------------------------------
  C     -3.290315   -0.869956    0.303011
  C     -1.887005   -0.614657   -0.233542
  C     -1.502812    0.859510   -0.124052
  C     -0.115643    1.133990   -0.713240
  C      0.954322    0.452541    0.099744
  O      1.110073    0.588446    1.295493
  O      1.713702   -0.330293   -0.657816
  C      2.790946   -1.052514   -0.052607
  H     -3.354656   -0.581473    1.349621
  H     -4.021485   -0.292860   -0.257898
  H     -3.544832   -1.923372    0.220141
  H     -1.167493   -1.215649    0.328670
  H     -1.834449   -0.925619   -1.279110
  H     -1.502507    1.158354    0.926213
  H     -2.238084    1.466658   -0.653328
  H      0.083406    2.206456   -0.682787
  H     -0.049139    0.782243   -1.742033
  H      3.728440   -0.572855   -0.331127
  H      2.752030   -2.065909   -0.444593
  H      2.676639   -1.048431    1.032060

 Total Charge           Charge          ....    0
 Multiplicity           Mult            ....    1
 Number of Electrons    NEL             ....   64
 Basis Dimension        Dim             ....  222

ORBITAL ENERGIES
----------------

  NO   OCC          E(Eh)            E(eV)
   0   2.0000     -18.999902      -517.0136
   1   2.0000     -18.928528      -515.0714
   2   2.0000     -10.152984      -276.2767
   3   2.0000     -10.085146      -274.4308
   4   2.0000     -10.041189      -273.2346
   5   2.0000     -10.032169      -272.9892
   6   2.0000     -10.027072      -272.8505
   7   2.0000     -10.016893      -272.5735
   8   2.0000      -1.072647       -29.1882
   9   2.0000      -0.976564       -26.5737
  10   2.0000      -0.777776       -21.1644
  11   2.0000      -0.726934       -19.7809
  12   2.0000      -0.687221       -18.7002
  13   2.0000      -0.614759       -16.7284
  14   2.0000      -0.557756       -15.1773
  15   2.0000      -0.526246       -14.3199
  16   2.0000      -0.473771       -12.8920
  17   2.0000      -0.455795       -12.4028
  18   2.0000      -0.445176       -12.1138
  19   2.0000      -0.426201       -11.5975
  20   2.0000      -0.411066       -11.1857
  21   2.0000      -0.396784       -10.7971
  22   2.0000      -0.386641       -10.5210
  23   2.0000      -0.355473        -9.6729
  24   2.0000      -0.349214        -9.5026
  25   2.0000      -0.336527        -9.1574
  26   2.0000      -0.318598        -8.6695
  27   2.0000      -0.306541        -8.3414
  28   2.0000      -0.299550        -8.1512
  29   2.0000      -0.295503        -8.0410
  30   2.0000      -0.272547        -7.4164
  31   2.0000      -0.238357        -6.4860
  32   0.0000      -0.015193        -0.4134
  33   0.0000       0.066353         1.8056
  34   0.0000       0.089997         2.4490
  35   0.0000       0.108037         2.9398
  36   0.0000       0.114685         3.1207

MULLIKEN ATOMIC CHARGES
-----------------------
   0 C :   -0.474986
   1 C :   -0.250470
   2 C :   -0.264011
   3 C :   -0.289584
   4 C :    0.359635
   5 O :   -0.430079
   6 O :   -0.187965
   7 C :   -0.305291
   8 H :    0.146018
   9 H :    0.140765
  10 H :    0.147018
  11 H :    0.146950
  12 H :    0.140019
  13 H :    0.165112
  14 H :    0.144160
  15 H :    0.167396
  16 H :    0.160584
  17 H :    0.149398
  18 H :    0.148506
  19 H :    0.186825
Sum of atomic charges:   -0.0000000

LOEWDIN ATOMIC CHARGES
----------------------
   0 C :   -0.421953
   1 C :   -0.309274
   2 C :   -0.287112
   3 C :   -0.228582
   4 C :    0.352525
   5 O :   -0.442006
   6 O :   -0.602696
   7 C :   -0.047063
   8 H :    0.152081
   9 H :    0.149678
  10 H :    0.150865
  11 H :    0.157345
  12 H :    0.151441
  13 H :    0.169844
  14 H :    0.155848
  15 H :    0.181772
  16 H :    0.178010
  17 H :    0.172869
  18 H :    0.174504
  19 H :    0.191901

  Mayer bond orders larger than 0.100000
B(  0-C ,  1-C ) :   0.9031 B(  0-C ,  8-H ) :   0.9830 B(  0-C ,  9-H ) :   0.9828
B(  0-C , 10-H ) :   0.9741 B(  1-C ,  2-C ) :   0.9243 B(  1-C , 11-H ) :   0.9587
B(  1-C , 12-H ) :   0.9704 B(  2-C ,  3-C ) :   0.8911 B(  2-C , 13-H ) :   0.9719
B(  2-C , 14-H ) :   0.9710 B(  3-C ,  4-C ) :   0.9497 B(  3-C , 15-H ) :   0.9430
B(  3-C , 16-H ) :   0.9982 B(  4-C ,  5-O ) :   1.8390 B(  4-C ,  6-O ) :   1.0495
B(  6-O ,  7-C ) :   0.8430 B(  7-C , 17-H ) :   0.9616 B(  7-C , 18-H ) :   0.9672
B(  7-C , 19-H ) :   0.9669

Dispersion correction           -0.005117438
FINAL SINGLE POINT ENERGY      -386.230227463380

DIPOLE MOMENT
-------------

Method             : SCF
Type of density    : Electron Density
Multiplicity       :   1
Irrep              :   0
Energy             :  -386.2371781955595225 Eh
Relativity type    :
Basis              : AO
                                X                 Y                 Z
Electronic contribution:      7.963741075       2.524702592       0.746831758
Nuclear contribution   :     -7.906396841      -2.822358830      -1.429850350
                        -----------------------------------------
Total Dipole Moment    :      0.057344234      -0.297656239      -0.683018592
                        -----------------------------------------
Magnitude (a.u.)       :      0.747263002
Magnitude (Debye)      :      1.899391604

Rotational constants in cm-1:             0.125628             0.033421             0.031514
Rotational constants in MHz :          3766.224497          1001.932733           944.774405

                             ****ORCA TERMINATED NORMALLY****
TOTAL RUN TIME: 0 days 0 hours 0 minutes 26 seconds 44 msec
