                         Program Version 6.0.0  -   RELEASE  -
|  1> ! r2scan-3c def2/J RI DEFGRID2 scfconv6 printgap
|  2> %output
|  3>     printlevel normal
|  4> end
|  5> %cpcm
|  6>     smd true
|  7>     smdsolvent "water"
|  8> end
|  9> * xyz 0 1
| 10> C -3.2903147431 -0.8699559781 0.303010661
| 11> C -1.8870050914 -0.6146570064 -0.2335420643
| 12> C -1.5028124633 0.859509803 -0.1240517625
| 13> C -0.1156429486 1.1339900641 -0.7132397207
| 14> C 0.9543223233 0.4525409805 0.0997437643
| 15> O 1.110073099 0.5884457475 1.2954932366
| 16> O 1.7137016571 -0.3302925967 -0.6578159377
| 17> C 2.7909455429 -1.0525143827 -0.0526073815
| 18> H -3.3546557617 -0.5814729761 1.3496214602
| 19> H -4.0214845904 -0.2928598206 -0.2578981302
| 20> H -3.5448322442 -1.9233716848 0.2201413342
| 21> H -1.1674929901 -1.2156491012 0.3286704066
| 22> H -1.8344486457 -0.9256187428 -1.2791098225
| 23> H -1.5025068901 1.1583537802 0.9262132491
| 24> H -2.2380841972 1.4666578552 -0.6533275022
| 25> H 0.0834063243 2.2064555725 -0.682787414
| 26> H -0.0491385323 0.7822429049 -1.7420325342
| 27> H 3.7284401521 -0.572855035 -0.3311265978
| 28> H 2.7520301852 -2.0659086846 -0.4445931381
| 29> H 2.6766393107 -1.0484309922 1.0320600412
| 30> *
| 31>
| 32>                          ****END OF INPUT****

CARTESIAN COORDINATES (ANGSTROEM)
---------------------------------
  C     -3.290315   -0.869956    0.303011
  C     -1.887005   -0.614657   -0.233542
  C     -1.502812    0.859510   -0.124052
  C     -0.115643    1.133990   -0.713240
  C      0.954322    0.452541    0.099744
  O      1.110073    0.588446    1.295493
  O      1.713702   -0.330293   -0.657816
  C      2.790946   -1.052514   -0.052607
  H     -3.354656   -0.581473    1.349621
  H     -4.021485   -0.292860   -0.257898
  H     -3.544832   -1.923372    0.220141
  H     -1.167493   -1.215649    0.328670
  H     -1.834449   -0.925619   -1.279110
  H     -1.502507    1.158354    0.926213
  H     -2.238084    1.466658   -0.653328
  H      0.083406    2.206456   -0.682787
  H     -0.049139    0.782243   -1.742033
  H      3.728440   -0.572855   -0.331127
  H      2.752030   -2.065909   -0.444593
  H      2.676639   -1.048431    1.032060

 Total Charge           Charge          ....    0
 Multiplicity           Mult            ....    1
 Number of Electrons    NEL             ....   64
 Basis Dimension        Dim             ....  222

ORBITAL ENERGIES
----------------

  NO   OCC          E(Eh)            E(eV)
   0   2.0000     -19.005159      -517.1567
   1   2.0000     -18.943342      -515.4746
   2   2.0000     -10.162808      -276.5441
   3   2.0000     -10.074949      -274.1533
   4   2.0000     -10.035406      -273.0773
   5   2.0000     -10.025639      -272.8115
   6   2.0000     -10.019143      -272.6348
   7   2.0000     -10.008798      -272.3532
   8   2.0000      -1.079223       -29.3671
   9   2.0000      -0.989462       -26.9246
  10   2.0000      -0.772449       -21.0194
  11   2.0000      -0.722152       -19.6508
  12   2.0000      -0.680975       -18.5303
  13   2.0000      -0.608367       -16.5545
  14   2.0000      -0.551275       -15.0010
  15   2.0000      -0.524394       -14.2695
  16   2.0000      -0.474111       -12.9012
  17   2.0000      -0.457221       -12.4416
  18   2.0000      -0.451047       -12.2736
  19   2.0000      -0.424749       -11.5580
  20   2.0000      -0.403841       -10.9891
  21   2.0000      -0.390277       -10.6200
  22   2.0000      -0.384887       -10.4733
  23   2.0000      -0.356250        -9.6941
  24   2.0000      -0.342603        -9.3227
  25   2.0000      -0.330379        -8.9901
  26   2.0000      -0.319439        -8.6924
  27   2.0000      -0.301236        -8.1971
  28   2.0000      -0.291944        -7.9442
  29   2.0000      -0.288656        -7.8547
  30   2.0000      -0.279708        -7.6113
  31   2.0000      -0.253850        -6.9076
  32   0.0000      -0.022547        -0.6135
  33   0.0000       0.070605         1.9213
  34   0.0000       0.097371         2.6496
  35   0.0000       0.116642         3.1740
  36   0.0000       0.125968         3.4278

MULLIKEN ATOMIC CHARGES
-----------------------
   0 C :   -0.518137
   1 C :   -0.256190
   2 C :   -0.278027
   3 C :   -0.306450
   4 C :    0.393912
   5 O :   -0.512982
   6 O :   -0.207099
   7 C :   -0.321420
   8 H :    0.154395
   9 H :    0.155033
  10 H :    0.157871
  11 H :    0.152288
  12 H :    0.154734
  13 H :    0.159905
  14 H :    0.164173
  15 H :    0.196257
  16 H :    0.176085
  17 H :    0.177100
  18 H :    0.175298
  19 H :    0.183255
Sum of atomic charges:   -0.0000000

LOEWDIN ATOMIC CHARGES
----------------------
   0 C :   -0.430286
   1 C :   -0.310984
   2 C :   -0.287140
   3 C :   -0.226094
   4 C :    0.361560
   5 O :   -0.501695
   6 O :   -0.605335
   7 C :   -0.041639
   8 H :    0.153309
   9 H :    0.153529
  10 H :    0.153523
  11 H :    0.157474
  12 H :    0.156239
  13 H :    0.166002
  14 H :    0.163441
  15 H :    0.191796
  16 H :    0.185330
  17 H :    0.183704
  18 H :    0.186201
  19 H :    0.191066

  Mayer bond orders larger than 0.100000
B(  0-C ,  1-C ) :   0.8930 B(  0-C ,  8-H ) :   0.9815 B(  0-C ,  9-H ) :   0.9800
B(  0-C , 10-H ) :   0.9712 B(  1-C ,  2-C ) :   0.9157 B(  1-C , 11-H ) :   0.9584
B(  1-C , 12-H ) :   0.9684 B(  2-C ,  3-C ) :   0.8737 B(  2-C , 13-H ) :   0.9791
B(  2-C , 14-H ) :   0.9652 B(  3-C ,  4-C ) :   0.9519 B(  3-C , 15-H ) :   0.9370
B(  3-C , 16-H ) :   0.9880 B(  4-C ,  5-O ) :   1.7726 B(  4-C ,  6-O ) :   1.0730
B(  6-O ,  7-C ) :   0.8303 B(  7-C , 17-H ) :   0.9528 B(  7-C , 18-H ) :   0.9574
B(  7-C , 19-H ) :   0.9633

Dispersion correction           -0.005117438
FINAL SINGLE POINT ENERGY      -386.234455413934

DIPOLE MOMENT
-------------

Method             : SCF
Type of density    : Electron Density
Multiplicity       :   1
Irrep              :   0
Energy             :  -386.2414061461131496 Eh
Relativity type    :
Basis              : AO
                                X                 Y                 Z
Electronic contribution:      7.984703362       2.444540955       0.392788386
Nuclear contribution   :     -7.906396841      -2.822358830      -1.429850350
                        -----------------------------------------
Total Dipole Moment    :      0.078306520      -0.377817876      -1.037061964
                        -----------------------------------------
Magnitude (a.u.)       :      1.106515149
Magnitude (Debye)      :      2.812537993

Rotational constants in cm-1:             0.125628             0.033421             0.031514
Rotational constants in MHz :          3766.224497          1001.932733           944.774405

                             ****ORCA TERMINATED NORMALLY****
TOTAL RUN TIME: 0 days 0 hours 0 minutes 34 seconds 1 msec
