                         Program Version 6.0.0  -   RELEASE  -
|  1> ! pbe def2-sv(p) def2/J RI DEFGRID1 loosescf d4 GCP(DFT/SV(P)) printgap
|  2> %output
|  3>     printlevel normal
|  4> end
|  5> * xyz 0 1
|  6> C 1.4219147058 1.0501374119 -0.8386350258
|  7> C 1.2900872742 0.1139887933 0.3710915769
|  8> C 1.749477896 -1.3001855663 0.0014911982
|  9> N 0.0007881328 0.1032724836 1.0587097843
| 10> C -1.292661266 -0.024340738 0.3912725329
| 11> C -1.378052348 -1.2232202846 -0.5473641412
| 12> C -1.7884715652 1.2457135323 -0.3220859909
| 13> H 2.4657121684 1.1019869113 -1.1393744003
| 14> H 0.8452450282 0.6835972867 -1.6837419411
| 15> H 1.0863977789 2.0542403753 -0.5884922321
| 16> H 1.9872708565 0.4769630646 1.1383448998
| 17> H 2.8244304076 -1.2977712264 -0.1622548886
| 18> H 1.2698333691 -1.6573357313 -0.9033850755
| 19> H 1.5220960634 -1.9829589088 0.8146769938
| 20> H -0.0536557365 0.9173053785 1.6592474026
| 21> H -1.9887780846 -0.211549587 1.2233972743
| 22> H -2.4172913464 -1.3868418494 -0.8221365931
| 23> H -0.8115704424 -1.0519822096 -1.4582137667
| 24> H -1.0042124631 -2.1148847171 -0.054524449
| 25> H -2.8466130886 1.1428650413 -0.5508076111
| 26> H -1.255534228 1.4180668875 -1.2522097586
| 27> H -1.6616284702 2.1165466269 0.318926859
| 28> *
| 29>
| 30>                          ****END OF INPUT****

CARTESIAN COORDINATES (ANGSTROEM)
---------------------------------
  C      1.421915    1.050137   -0.838635
  C      1.290087    0.113989    0.371092
  C      1.749478   -1.300186    0.001491
  N      0.000788    0.103272    1.058710
  C     -1.292661   -0.024341    0.391273
  C     -1.378052   -1.223220   -0.547364
  C     -1.788472    1.245714   -0.322086
  H      2.465712    1.101987   -1.139374
  H      0.845245    0.683597   -1.683742
  H      1.086398    2.054240   -0.588492
  H      1.987271    0.476963    1.138345
  H      2.824430   -1.297771   -0.162255
  H      1.269833   -1.657336   -0.903385
  H      1.522096   -1.982959    0.814677
  H     -0.053656    0.917305    1.659247
  H     -1.988778   -0.211550    1.223397
  H     -2.417291   -1.386842   -0.822137
  H     -0.811570   -1.051982   -1.458214
  H     -1.004212   -2.114885   -0.054524
  H     -2.846613    1.142865   -0.550808
  H     -1.255534    1.418067   -1.252210
  H     -1.661628    2.116547    0.318927

 Total Charge           Charge          ....    0
 Multiplicity           Mult            ....    1
 Number of Electrons    NEL             ....   58
 Basis Dimension        Dim             ....  128

ORBITAL ENERGIES
----------------

  NO   OCC          E(Eh)            E(eV)
   0   2.0000     -13.955624      -379.7518
   1   2.0000      -9.914577      -269.7894
   2   2.0000      -9.914427      -269.7853
   3   2.0000      -9.870208      -268.5820
   4   2.0000      -9.869297      -268.5572
   5   2.0000      -9.868670      -268.5402
   6   2.0000      -9.863071      -268.3878
   7   2.0000      -0.810463       -22.0538
   8   2.0000      -0.701797       -19.0969
   9   2.0000      -0.658270       -17.9124
  10   2.0000      -0.614350       -16.7173
  11   2.0000      -0.601398       -16.3649
  12   2.0000      -0.535221       -14.5641
  13   2.0000      -0.479600       -13.0506
  14   2.0000      -0.452355       -12.3092
  15   2.0000      -0.398098       -10.8328
  16   2.0000      -0.394396       -10.7321
  17   2.0000      -0.383443       -10.4340
  18   2.0000      -0.367660       -10.0045
  19   2.0000      -0.351069        -9.5531
  20   2.0000      -0.345909        -9.4127
  21   2.0000      -0.334860        -9.1120
  22   2.0000      -0.325377        -8.8540
  23   2.0000      -0.319374        -8.6906
  24   2.0000      -0.305253        -8.3064
  25   2.0000      -0.290307        -7.8997
  26   2.0000      -0.282522        -7.6878
  27   2.0000      -0.268990        -7.3196
  28   2.0000      -0.161284        -4.3888
  29   0.0000       0.023439         0.6378
  30   0.0000       0.055126         1.5001
  31   0.0000       0.062006         1.6873
  32   0.0000       0.076230         2.0743
  33   0.0000       0.089146         2.4258

MULLIKEN ATOMIC CHARGES
-----------------------
   0 C :   -0.244058
   1 C :   -0.103049
   2 C :   -0.237061
   3 N :   -0.315559
   4 C :   -0.080859
   5 C :   -0.257951
   6 C :   -0.251220
   7 H :    0.093061
   8 H :    0.105012
   9 H :    0.093532
  10 H :    0.061452
  11 H :    0.092182
  12 H :    0.094478
  13 H :    0.099984
  14 H :    0.194175
  15 H :    0.065201
  16 H :    0.099255
  17 H :    0.105308
  18 H :    0.111505
  19 H :    0.090533
  20 H :    0.098488
  21 H :    0.085589
Sum of atomic charges:   -0.0000000

LOEWDIN ATOMIC CHARGES
----------------------
   0 C :   -0.350888
   1 C :   -0.102193
   2 C :   -0.341278
   3 N :   -0.249422
   4 C :   -0.102136
   5 C :   -0.336522
   6 C :   -0.352283
   7 H :    0.119656
   8 H :    0.114551
   9 H :    0.114088
  10 H :    0.112269
  11 H :    0.117550
  12 H :    0.114649
  13 H :    0.119931
  14 H :    0.205601
  15 H :    0.110644
  16 H :    0.122037
  17 H :    0.114934
  18 H :    0.123420
  19 H :    0.117883
  20 H :    0.116528
  21 H :    0.110981

  Mayer bond orders larger than 0.100000
B(  0-C ,  1-C ) :   1.0883 B(  0-C ,  7-H ) :   0.9385 B(  0-C ,  8-H ) :   0.9351
B(  0-C ,  9-H ) :   0.9417 B(  1-C ,  2-C ) :   1.1196 B(  1-C ,  3-N ) :   1.1110
B(  1-C , 10-H ) :   0.9134 B(  2-C , 11-H ) :   0.9457 B(  2-C , 12-H ) :   0.9410
B(  2-C , 13-H ) :   0.9431 B(  3-N ,  4-C ) :   1.0958 B(  3-N , 14-H ) :   0.8764
B(  4-C ,  5-C ) :   1.1378 B(  4-C ,  6-C ) :   1.0865 B(  4-C , 15-H ) :   0.9109
B(  5-C , 16-H ) :   0.9458 B(  5-C , 17-H ) :   0.9356 B(  5-C , 18-H ) :   0.9352
B(  6-C , 19-H ) :   0.9390 B(  6-C , 20-H ) :   0.9386 B(  6-C , 21-H ) :   0.9473

Dispersion correction           -0.018767068
FINAL SINGLE POINT ENERGY      -291.665163992891

DIPOLE MOMENT
-------------

Method             : SCF
Type of density    : Electron Density
Multiplicity       :   1
Irrep              :   0
Energy             :  -291.7437424143154772 Eh
Relativity type    :
Basis              : AO
                                X                 Y                 Z
Electronic contribution:      0.003302119       0.097197107       3.178746659
Nuclear contribution   :     -0.035925617       0.195934224      -3.240769947
                        -----------------------------------------
Total Dipole Moment    :     -0.032623498       0.293131331      -0.062023288
                        -----------------------------------------
Magnitude (a.u.)       :      0.301392034
Magnitude (Debye)      :      0.766077669

Rotational constants in cm-1:             0.114367             0.064441             0.053935
Rotational constants in MHz :          3428.631649          1931.893883          1616.923500

                             ****ORCA TERMINATED NORMALLY****
TOTAL RUN TIME: 0 days 0 hours 0 minutes 10 seconds 443 msec
