                         Program Version 6.0.0  -   RELEASE  -
|  1> ! r2scan-3c def2/J RI DEFGRID2 scfconv6 printgap
|  2> %output
|  3>     printlevel normal
|  4> end
|  5> * xyz 0 1
|  6> C -3.8884134155 0.3720723066 0.0236715021
|  7> C -2.6864621126 -0.5287646502 0.28105033
|  8> C -1.3752251623 0.179068932 -0.0504152138
|  9> C -0.1629514983 -0.7138404845 0.2228345533
| 10> C 1.1145425297 -0.0565414094 -0.2286205274
| 11> O 1.2616421413 0.5369947992 -1.2763105966
| 12> O 2.0845605132 -0.2163452829 0.6649341106
| 13> C 3.3758461804 0.3312769829 0.3799281655
| 14> H -3.8309105192 1.2686507638 0.6364582308
| 15> H -3.9202852535 0.6739207857 -1.0205961603
| 16> H -4.8127351271 -0.1483495819 0.2606327594
| 17> H -2.6771669717 -0.8311271712 1.3299562315
| 18> H -2.7731169671 -1.431531986 -0.3264902018
| 19> H -1.2928672449 1.0907377081 0.5451177458
| 20> H -1.3644800706 0.4708931614 -1.1025944973
| 21> H -0.2665531797 -1.6426425444 -0.3432556264
| 22> H -0.0759141572 -0.9584175602 1.2808195096
| 23> H 3.4366469717 1.3372134947 0.7950090634
| 24> H 3.5333024944 0.3710615659 -0.6984509133
| 25> H 4.0972363815 -0.3243058366 0.8592469156
| 26> *
| 27>
| 28>                          ****END OF INPUT****

CARTESIAN COORDINATES (ANGSTROEM)
---------------------------------
  C     -3.888413    0.372072    0.023672
  C     -2.686462   -0.528765    0.281050
  C     -1.375225    0.179069   -0.050415
  C     -0.162951   -0.713840    0.222835
  C      1.114543   -0.056541   -0.228621
  O      1.261642    0.536995   -1.276311
  O      2.084561   -0.216345    0.664934
  C      3.375846    0.331277    0.379928
  H     -3.830911    1.268651    0.636458
  H     -3.920285    0.673921   -1.020596
  H     -4.812735   -0.148350    0.260633
  H     -2.677167   -0.831127    1.329956
  H     -2.773117   -1.431532   -0.326490
  H     -1.292867    1.090738    0.545118
  H     -1.364480    0.470893   -1.102594
  H     -0.266553   -1.642643   -0.343256
  H     -0.075914   -0.958418    1.280820
  H      3.436647    1.337213    0.795009
  H      3.533302    0.371062   -0.698451
  H      4.097236   -0.324306    0.859247

 Total Charge           Charge          ....    0
 Multiplicity           Mult            ....    1
 Number of Electrons    NEL             ....   64
 Basis Dimension        Dim             ....  222

ORBITAL ENERGIES
----------------

  NO   OCC          E(Eh)            E(eV)
   0   2.0000     -18.999577      -517.0048
   1   2.0000     -18.928277      -515.0646
   2   2.0000     -10.152424      -276.2615
   3   2.0000     -10.085727      -274.4466
   4   2.0000     -10.041805      -273.2514
   5   2.0000     -10.030465      -272.9428
   6   2.0000     -10.028460      -272.8883
   7   2.0000     -10.017576      -272.5921
   8   2.0000      -1.072542       -29.1853
   9   2.0000      -0.976218       -26.5642
  10   2.0000      -0.776841       -21.1389
  11   2.0000      -0.729035       -19.8380
  12   2.0000      -0.686790       -18.6885
  13   2.0000      -0.615399       -16.7459
  14   2.0000      -0.553206       -15.0535
  15   2.0000      -0.530195       -14.4273
  16   2.0000      -0.466498       -12.6941
  17   2.0000      -0.460476       -12.5302
  18   2.0000      -0.446583       -12.1522
  19   2.0000      -0.435438       -11.8489
  20   2.0000      -0.404550       -11.0084
  21   2.0000      -0.393252       -10.7009
  22   2.0000      -0.386209       -10.5093
  23   2.0000      -0.363058        -9.8793
  24   2.0000      -0.349712        -9.5162
  25   2.0000      -0.326873        -8.8947
  26   2.0000      -0.319180        -8.6853
  27   2.0000      -0.308880        -8.4051
  28   2.0000      -0.299807        -8.1582
  29   2.0000      -0.298243        -8.1156
  30   2.0000      -0.273303        -7.4369
  31   2.0000      -0.237392        -6.4598
  32   0.0000      -0.014411        -0.3921
  33   0.0000       0.068763         1.8711
  34   0.0000       0.096814         2.6344
  35   0.0000       0.100455         2.7335
  36   0.0000       0.119764         3.2589

MULLIKEN ATOMIC CHARGES
-----------------------
   0 C :   -0.467496
   1 C :   -0.227855
   2 C :   -0.280067
   3 C :   -0.325858
   4 C :    0.397446
   5 O :   -0.433059
   6 O :   -0.192843
   7 C :   -0.299155
   8 H :    0.142200
   9 H :    0.144698
  10 H :    0.147590
  11 H :    0.134412
  12 H :    0.137406
  13 H :    0.138151
  14 H :    0.170045
  15 H :    0.168962
  16 H :    0.165548
  17 H :    0.151332
  18 H :    0.179635
  19 H :    0.148909
Sum of atomic charges:    0.0000000

LOEWDIN ATOMIC CHARGES
----------------------
   0 C :   -0.423021
   1 C :   -0.314365
   2 C :   -0.285998
   3 C :   -0.227908
   4 C :    0.358868
   5 O :   -0.437048
   6 O :   -0.603903
   7 C :   -0.046172
   8 H :    0.150214
   9 H :    0.151363
  10 H :    0.150570
  11 H :    0.151020
  12 H :    0.151479
  13 H :    0.158222
  14 H :    0.170407
  15 H :    0.182238
  16 H :    0.178387
  17 H :    0.172682
  18 H :    0.187810
  19 H :    0.175155

  Mayer bond orders larger than 0.100000
B(  0-C ,  1-C ) :   0.9024 B(  0-C ,  8-H ) :   0.9819 B(  0-C ,  9-H ) :   0.9829
B(  0-C , 10-H ) :   0.9754 B(  1-C ,  2-C ) :   0.9139 B(  1-C , 11-H ) :   0.9656
B(  1-C , 12-H ) :   0.9807 B(  2-C ,  3-C ) :   0.9203 B(  2-C , 13-H ) :   0.9650
B(  2-C , 14-H ) :   0.9701 B(  3-C ,  4-C ) :   0.9821 B(  3-C , 15-H ) :   0.9508
B(  3-C , 16-H ) :   0.9781 B(  4-C ,  5-O ) :   1.8230 B(  4-C ,  6-O ) :   1.0639
B(  6-O ,  7-C ) :   0.8432 B(  7-C , 17-H ) :   0.9609 B(  7-C , 18-H ) :   0.9661
B(  7-C , 19-H ) :   0.9694

Dispersion correction           -0.004859800
FINAL SINGLE POINT ENERGY      -386.230203511378

DIPOLE MOMENT
-------------

Method             : SCF
Type of density    : Electron Density
Multiplicity       :   1
Irrep              :   0
Energy             :  -386.2373485750268856 Eh
Relativity type    :
Basis              : AO
                                X                 Y                 Z
Electronic contribution:      9.393495436      -0.178510050      -1.412632562
Nuclear contribution   :     -9.282179413      -0.111481583       2.069773955
                        -----------------------------------------
Total Dipole Moment    :      0.111316023      -0.289991633       0.657141393
                        -----------------------------------------
Magnitude (a.u.)       :      0.726857080
Magnitude (Debye)      :      1.847523873

Rotational constants in cm-1:             0.223478             0.025081             0.023818
Rotational constants in MHz :          6699.700242           751.912863           714.046297

                             ****ORCA TERMINATED NORMALLY****
TOTAL RUN TIME: 0 days 0 hours 0 minutes 27 seconds 514 msec
