                         Program Version 6.0.0  -   RELEASE  -
|  1> ! r2scan-3c def2/J RI DEFGRID2 scfconv6 printgap
|  2> %output
|  3>     printlevel normal
|  4> end
|  5> %cpcm
|  6>     smd true
|  7>     smdsolvent "water"
|  8> end
|  9> * xyz 0 1
| 10> C -3.8884134155 0.3720723066 0.0236715021
| 11> C -2.6864621126 -0.5287646502 0.28105033
| 12> C -1.3752251623 0.179068932 -0.0504152138
| 13> C -0.1629514983 -0.7138404845 0.2228345533
| 14> C 1.1145425297 -0.0565414094 -0.2286205274
| 15> O 1.2616421413 0.5369947992 -1.2763105966
| 16> O 2.0845605132 -0.2163452829 0.6649341106
| 17> C 3.3758461804 0.3312769829 0.3799281655
| 18> H -3.8309105192 1.2686507638 0.6364582308
| 19> H -3.9202852535 0.6739207857 -1.0205961603
| 20> H -4.8127351271 -0.1483495819 0.2606327594
| 21> H -2.6771669717 -0.8311271712 1.3299562315
| 22> H -2.7731169671 -1.431531986 -0.3264902018
| 23> H -1.2928672449 1.0907377081 0.5451177458
| 24> H -1.3644800706 0.4708931614 -1.1025944973
| 25> H -0.2665531797 -1.6426425444 -0.3432556264
| 26> H -0.0759141572 -0.9584175602 1.2808195096
| 27> H 3.4366469717 1.3372134947 0.7950090634
| 28> H 3.5333024944 0.3710615659 -0.6984509133
| 29> H 4.0972363815 -0.3243058366 0.8592469156
| 30> *
| 31>
| 32>                          ****END OF INPUT****

CARTESIAN COORDINATES (ANGSTROEM)
---------------------------------
  C     -3.888413    0.372072    0.023672
  C     -2.686462   -0.528765    0.281050
  C     -1.375225    0.179069   -0.050415
  C     -0.162951   -0.713840    0.222835
  C      1.114543   -0.056541   -0.228621
  O      1.261642    0.536995   -1.276311
  O      2.084561   -0.216345    0.664934
  C      3.375846    0.331277    0.379928
  H     -3.830911    1.268651    0.636458
  H     -3.920285    0.673921   -1.020596
  H     -4.812735   -0.148350    0.260633
  H     -2.677167   -0.831127    1.329956
  H     -2.773117   -1.431532   -0.326490
  H     -1.292867    1.090738    0.545118
  H     -1.364480    0.470893   -1.102594
  H     -0.266553   -1.642643   -0.343256
  H     -0.075914   -0.958418    1.280820
  H      3.436647    1.337213    0.795009
  H      3.533302    0.371062   -0.698451
  H      4.097236   -0.324306    0.859247

 Total Charge           Charge          ....    0
 Multiplicity           Mult            ....    1
 Number of Electrons    NEL             ....   64
 Basis Dimension        Dim             ....  222

ORBITAL ENERGIES
----------------

  NO   OCC          E(Eh)            E(eV)
   0   2.0000     -19.004571      -517.1407
   1   2.0000     -18.943632      -515.4824
   2   2.0000     -10.162540      -276.5368
   3   2.0000     -10.075397      -274.1655
   4   2.0000     -10.035401      -273.0771
   5   2.0000     -10.024106      -272.7698
   6   2.0000     -10.018686      -272.6223
   7   2.0000     -10.008450      -272.3438
   8   2.0000      -1.079198       -29.3665
   9   2.0000      -0.989334       -26.9211
  10   2.0000      -0.770564       -20.9681
  11   2.0000      -0.723735       -19.6938
  12   2.0000      -0.680252       -18.5106
  13   2.0000      -0.608476       -16.5575
  14   2.0000      -0.545695       -14.8491
  15   2.0000      -0.528199       -14.3730
  16   2.0000      -0.468077       -12.7370
  17   2.0000      -0.460285       -12.5250
  18   2.0000      -0.451041       -12.2735
  19   2.0000      -0.433490       -11.7959
  20   2.0000      -0.397567       -10.8184
  21   2.0000      -0.391278       -10.6472
  22   2.0000      -0.379467       -10.3258
  23   2.0000      -0.360934        -9.8215
  24   2.0000      -0.344825        -9.3832
  25   2.0000      -0.324838        -8.8393
  26   2.0000      -0.315413        -8.5828
  27   2.0000      -0.301370        -8.2007
  28   2.0000      -0.294448        -8.0123
  29   2.0000      -0.289306        -7.8724
  30   2.0000      -0.280497        -7.6327
  31   2.0000      -0.253038        -6.8855
  32   0.0000      -0.021791        -0.5930
  33   0.0000       0.073502         2.0001
  34   0.0000       0.104203         2.8355
  35   0.0000       0.109999         2.9932
  36   0.0000       0.130174         3.5422

MULLIKEN ATOMIC CHARGES
-----------------------
   0 C :   -0.511185
   1 C :   -0.242793
   2 C :   -0.285983
   3 C :   -0.345469
   4 C :    0.439961
   5 O :   -0.518259
   6 O :   -0.209481
   7 C :   -0.322012
   8 H :    0.154364
   9 H :    0.153886
  10 H :    0.158046
  11 H :    0.147561
  12 H :    0.150371
  13 H :    0.156952
  14 H :    0.159341
  15 H :    0.199642
  16 H :    0.180473
  17 H :    0.178930
  18 H :    0.179815
  19 H :    0.175838
Sum of atomic charges:    0.0000000

LOEWDIN ATOMIC CHARGES
----------------------
   0 C :   -0.431607
   1 C :   -0.313483
   2 C :   -0.287457
   3 C :   -0.225133
   4 C :    0.369234
   5 O :   -0.498329
   6 O :   -0.605837
   7 C :   -0.041959
   8 H :    0.152830
   9 H :    0.152783
  10 H :    0.153207
  11 H :    0.155318
  12 H :    0.155220
  13 H :    0.162824
  14 H :    0.165441
  15 H :    0.193270
  16 H :    0.185898
  17 H :    0.182668
  18 H :    0.188072
  19 H :    0.187038

  Mayer bond orders larger than 0.100000
B(  0-C ,  1-C ) :   0.8887 B(  0-C ,  8-H ) :   0.9798 B(  0-C ,  9-H ) :   0.9816
B(  0-C , 10-H ) :   0.9724 B(  1-C ,  2-C ) :   0.9160 B(  1-C , 11-H ) :   0.9655
B(  1-C , 12-H ) :   0.9803 B(  2-C ,  3-C ) :   0.9083 B(  2-C , 13-H ) :   0.9623
B(  2-C , 14-H ) :   0.9715 B(  3-C ,  4-C ) :   0.9843 B(  3-C , 15-H ) :   0.9411
B(  3-C , 16-H ) :   0.9692 B(  4-C ,  5-O ) :   1.7608 B(  4-C ,  6-O ) :   1.0892
B(  6-O ,  7-C ) :   0.8275 B(  7-C , 17-H ) :   0.9530 B(  7-C , 18-H ) :   0.9621
B(  7-C , 19-H ) :   0.9595

Dispersion correction           -0.004859800
FINAL SINGLE POINT ENERGY      -386.234556427405

DIPOLE MOMENT
-------------

Method             : SCF
Type of density    : Electron Density
Multiplicity       :   1
Irrep              :   0
Energy             :  -386.2417014910539024 Eh
Relativity type    :
Basis              : AO
                                X                 Y                 Z
Electronic contribution:      9.439886382      -0.353493397      -1.091545759
Nuclear contribution   :     -9.282179413      -0.111481583       2.069773955
                        -----------------------------------------
Total Dipole Moment    :      0.157706968      -0.464974980       0.978228196
                        -----------------------------------------
Magnitude (a.u.)       :      1.094533519
Magnitude (Debye)      :      2.782083109

Rotational constants in cm-1:             0.223478             0.025081             0.023818
Rotational constants in MHz :          6699.700242           751.912863           714.046297

                             ****ORCA TERMINATED NORMALLY****
TOTAL RUN TIME: 0 days 0 hours 0 minutes 32 seconds 987 msec
