                         Program Version 6.0.0  -   RELEASE  -
|  1> ! r2scan-3c def2/J RI DEFGRID2 scfconv6 printgap
|  2> %output
|  3>     printlevel normal
|  4> end
|  5> * xyz 0 1
|  6> C -2.4571316373 -1.2645968727 0.5600504707
|  7> C -2.544256388 0.0890074827 -0.1346501579
|  8> C -1.2846594584 0.3850281888 -0.9509418452
|  9> C -0.0855891287 0.6028882082 -0.0631963612
| 10> O -0.0920437932 1.2297544213 0.976283302
| 11> O 0.998265497 0.0291704848 -0.5677864303
| 12> C 2.2455122925 0.1459417048 0.1388015524
| 13> C 3.034306394 -1.1370889603 -0.0504826789
| 14> H -2.3146102855 -2.0601147314 -0.1674959128
| 15> H -1.6208210863 -1.2781891278 1.2564183433
| 16> H -3.3683723074 -1.4637707772 1.1174926629
| 17> H -2.6682867708 0.8753141761 0.6121909035
| 18> H -3.408128357 0.1051369723 -0.7994604386
| 19> H -1.4261020142 1.3055029326 -1.5215128209
| 20> H -1.0595688222 -0.4247073674 -1.6442980171
| 21> H 2.7806704833 1.004218576 -0.2785095508
| 22> H 2.0297859418 0.3425932563 1.1938803949
| 23> H 3.1916478757 -1.3208123776 -1.1091587022
| 24> H 3.9952707155 -1.0432287814 0.4445382435
| 25> H 2.4941933444 -1.9782788345 0.3748592362
| 26> *
| 27>
| 28>                          ****END OF INPUT****

CARTESIAN COORDINATES (ANGSTROEM)
---------------------------------
  C     -2.457132   -1.264597    0.560050
  C     -2.544256    0.089007   -0.134650
  C     -1.284659    0.385028   -0.950942
  C     -0.085589    0.602888   -0.063196
  O     -0.092044    1.229754    0.976283
  O      0.998265    0.029170   -0.567786
  C      2.245512    0.145942    0.138802
  C      3.034306   -1.137089   -0.050483
  H     -2.314610   -2.060115   -0.167496
  H     -1.620821   -1.278189    1.256418
  H     -3.368372   -1.463771    1.117493
  H     -2.668287    0.875314    0.612191
  H     -3.408128    0.105137   -0.799460
  H     -1.426102    1.305503   -1.521513
  H     -1.059569   -0.424707   -1.644298
  H      2.780670    1.004219   -0.278510
  H      2.029786    0.342593    1.193880
  H      3.191648   -1.320812   -1.109159
  H      3.995271   -1.043229    0.444538
  H      2.494193   -1.978279    0.374859

 Total Charge           Charge          ....    0
 Multiplicity           Mult            ....    1
 Number of Electrons    NEL             ....   64
 Basis Dimension        Dim             ....  222

ORBITAL ENERGIES
----------------

  NO   OCC          E(Eh)            E(eV)
   0   2.0000     -18.996659      -516.9254
   1   2.0000     -18.927014      -515.0302
   2   2.0000     -10.151485      -276.2360
   3   2.0000     -10.090297      -274.5709
   4   2.0000     -10.040517      -273.2164
   5   2.0000     -10.031971      -272.9838
   6   2.0000     -10.031233      -272.9637
   7   2.0000     -10.017467      -272.5891
   8   2.0000      -1.070861       -29.1396
   9   2.0000      -0.974869       -26.5275
  10   2.0000      -0.772060       -21.0088
  11   2.0000      -0.742597       -20.2071
  12   2.0000      -0.677390       -18.4327
  13   2.0000      -0.618997       -16.8438
  14   2.0000      -0.564148       -15.3512
  15   2.0000      -0.526728       -14.3330
  16   2.0000      -0.470052       -12.7908
  17   2.0000      -0.462903       -12.5962
  18   2.0000      -0.439284       -11.9535
  19   2.0000      -0.422930       -11.5085
  20   2.0000      -0.404904       -11.0180
  21   2.0000      -0.385179       -10.4813
  22   2.0000      -0.376130       -10.2350
  23   2.0000      -0.367717       -10.0061
  24   2.0000      -0.356310        -9.6957
  25   2.0000      -0.339521        -9.2388
  26   2.0000      -0.317116        -8.6292
  27   2.0000      -0.308971        -8.4075
  28   2.0000      -0.307204        -8.3595
  29   2.0000      -0.304604        -8.2887
  30   2.0000      -0.270774        -7.3681
  31   2.0000      -0.235848        -6.4178
  32   0.0000      -0.013863        -0.3772
  33   0.0000       0.075635         2.0581
  34   0.0000       0.093703         2.5498
  35   0.0000       0.105871         2.8809
  36   0.0000       0.126279         3.4362

MULLIKEN ATOMIC CHARGES
-----------------------
   0 C :   -0.498563
   1 C :   -0.204718
   2 C :   -0.301830
   3 C :    0.344086
   4 O :   -0.432521
   5 O :   -0.163845
   6 C :   -0.160570
   7 C :   -0.441189
   8 H :    0.143499
   9 H :    0.158398
  10 H :    0.147972
  11 H :    0.159466
  12 H :    0.142092
  13 H :    0.167876
  14 H :    0.164607
  15 H :    0.143602
  16 H :    0.180264
  17 H :    0.152770
  18 H :    0.146793
  19 H :    0.151812
Sum of atomic charges:   -0.0000000

LOEWDIN ATOMIC CHARGES
----------------------
   0 C :   -0.417258
   1 C :   -0.296423
   2 C :   -0.232612
   3 C :    0.357768
   4 O :   -0.442826
   5 O :   -0.597447
   6 C :    0.031668
   7 C :   -0.386954
   8 H :    0.149258
   9 H :    0.156837
  10 H :    0.152833
  11 H :    0.169130
  12 H :    0.152467
  13 H :    0.182797
  14 H :    0.178020
  15 H :    0.174569
  16 H :    0.191952
  17 H :    0.158642
  18 H :    0.159158
  19 H :    0.158420

  Mayer bond orders larger than 0.100000
B(  0-C ,  1-C ) :   0.9078 B(  0-C ,  8-H ) :   0.9826 B(  0-C ,  9-H ) :   0.9748
B(  0-C , 10-H ) :   0.9689 B(  1-C ,  2-C ) :   0.8958 B(  1-C , 11-H ) :   0.9626
B(  1-C , 12-H ) :   0.9648 B(  2-C ,  3-C ) :   0.9534 B(  2-C , 13-H ) :   0.9298
B(  2-C , 14-H ) :   0.9986 B(  3-C ,  4-O ) :   1.8337 B(  3-C ,  5-O ) :   1.0710
B(  5-O ,  6-C ) :   0.7831 B(  6-C ,  7-C ) :   0.9480 B(  6-C , 15-H ) :   0.9467
B(  6-C , 16-H ) :   0.9659 B(  7-C , 17-H ) :   0.9694 B(  7-C , 18-H ) :   0.9679
B(  7-C , 19-H ) :   0.9735

Dispersion correction           -0.005015093
FINAL SINGLE POINT ENERGY      -386.235857523197

DIPOLE MOMENT
-------------

Method             : SCF
Type of density    : Electron Density
Multiplicity       :   1
Irrep              :   0
Energy             :  -386.2426115256806725 Eh
Relativity type    :
Basis              : AO
                                X                 Y                 Z
Electronic contribution:      1.581970067       5.076814867      -0.061704655
Nuclear contribution   :     -1.275904854      -5.550605279      -0.482779807
                        -----------------------------------------
Total Dipole Moment    :      0.306065213      -0.473790411      -0.544484462
                        -----------------------------------------
Magnitude (a.u.)       :      0.783974871
Magnitude (Debye)      :      1.992705758

Rotational constants in cm-1:             0.128482             0.034305             0.031928
Rotational constants in MHz :          3851.781654          1028.435165           957.189632

                             ****ORCA TERMINATED NORMALLY****
TOTAL RUN TIME: 0 days 0 hours 0 minutes 31 seconds 852 msec
