                         Program Version 6.0.0  -   RELEASE  -
|  1> ! r2scan-3c def2/J RI DEFGRID2 scfconv6 printgap
|  2> %output
|  3>     printlevel normal
|  4> end
|  5> %cpcm
|  6>     smd true
|  7>     smdsolvent "water"
|  8> end
|  9> * xyz 0 1
| 10> C -2.4571316373 -1.2645968727 0.5600504707
| 11> C -2.544256388 0.0890074827 -0.1346501579
| 12> C -1.2846594584 0.3850281888 -0.9509418452
| 13> C -0.0855891287 0.6028882082 -0.0631963612
| 14> O -0.0920437932 1.2297544213 0.976283302
| 15> O 0.998265497 0.0291704848 -0.5677864303
| 16> C 2.2455122925 0.1459417048 0.1388015524
| 17> C 3.034306394 -1.1370889603 -0.0504826789
| 18> H -2.3146102855 -2.0601147314 -0.1674959128
| 19> H -1.6208210863 -1.2781891278 1.2564183433
| 20> H -3.3683723074 -1.4637707772 1.1174926629
| 21> H -2.6682867708 0.8753141761 0.6121909035
| 22> H -3.408128357 0.1051369723 -0.7994604386
| 23> H -1.4261020142 1.3055029326 -1.5215128209
| 24> H -1.0595688222 -0.4247073674 -1.6442980171
| 25> H 2.7806704833 1.004218576 -0.2785095508
| 26> H 2.0297859418 0.3425932563 1.1938803949
| 27> H 3.1916478757 -1.3208123776 -1.1091587022
| 28> H 3.9952707155 -1.0432287814 0.4445382435
| 29> H 2.4941933444 -1.9782788345 0.3748592362
| 30> *
| 31>
| 32>                          ****END OF INPUT****

CARTESIAN COORDINATES (ANGSTROEM)
---------------------------------
  C     -2.457132   -1.264597    0.560050
  C     -2.544256    0.089007   -0.134650
  C     -1.284659    0.385028   -0.950942
  C     -0.085589    0.602888   -0.063196
  O     -0.092044    1.229754    0.976283
  O      0.998265    0.029170   -0.567786
  C      2.245512    0.145942    0.138802
  C      3.034306   -1.137089   -0.050483
  H     -2.314610   -2.060115   -0.167496
  H     -1.620821   -1.278189    1.256418
  H     -3.368372   -1.463771    1.117493
  H     -2.668287    0.875314    0.612191
  H     -3.408128    0.105137   -0.799460
  H     -1.426102    1.305503   -1.521513
  H     -1.059569   -0.424707   -1.644298
  H      2.780670    1.004219   -0.278510
  H      2.029786    0.342593    1.193880
  H      3.191648   -1.320812   -1.109159
  H      3.995271   -1.043229    0.444538
  H      2.494193   -1.978279    0.374859

 Total Charge           Charge          ....    0
 Multiplicity           Mult            ....    1
 Number of Electrons    NEL             ....   64
 Basis Dimension        Dim             ....  222

ORBITAL ENERGIES
----------------

  NO   OCC          E(Eh)            E(eV)
   0   2.0000     -19.002374      -517.0809
   1   2.0000     -18.942782      -515.4593
   2   2.0000     -10.162218      -276.5280
   3   2.0000     -10.082573      -274.3607
   4   2.0000     -10.035109      -273.0692
   5   2.0000     -10.026300      -272.8295
   6   2.0000     -10.018577      -272.6193
   7   2.0000     -10.010834      -272.4086
   8   2.0000      -1.078233       -29.3402
   9   2.0000      -0.988471       -26.8977
  10   2.0000      -0.768346       -20.9078
  11   2.0000      -0.735336       -20.0095
  12   2.0000      -0.672054       -18.2875
  13   2.0000      -0.612816       -16.6756
  14   2.0000      -0.558371       -15.1940
  15   2.0000      -0.525860       -14.3094
  16   2.0000      -0.472343       -12.8531
  17   2.0000      -0.462065       -12.5734
  18   2.0000      -0.446740       -12.1564
  19   2.0000      -0.421955       -11.4820
  20   2.0000      -0.401512       -10.9257
  21   2.0000      -0.381697       -10.3865
  22   2.0000      -0.367400        -9.9975
  23   2.0000      -0.360387        -9.8066
  24   2.0000      -0.354756        -9.6534
  25   2.0000      -0.334848        -9.1117
  26   2.0000      -0.312427        -8.5016
  27   2.0000      -0.305142        -8.3033
  28   2.0000      -0.303254        -8.2520
  29   2.0000      -0.302245        -8.2245
  30   2.0000      -0.277017        -7.5380
  31   2.0000      -0.251912        -6.8549
  32   0.0000      -0.021810        -0.5935
  33   0.0000       0.078008         2.1227
  34   0.0000       0.101001         2.7484
  35   0.0000       0.116828         3.1791
  36   0.0000       0.132626         3.6089

MULLIKEN ATOMIC CHARGES
-----------------------
   0 C :   -0.528318
   1 C :   -0.221141
   2 C :   -0.313216
   3 C :    0.383503
   4 O :   -0.516728
   5 O :   -0.183506
   6 C :   -0.153366
   7 C :   -0.485755
   8 H :    0.160014
   9 H :    0.160772
  10 H :    0.160482
  11 H :    0.151540
  12 H :    0.161478
  13 H :    0.199052
  14 H :    0.180428
  15 H :    0.170171
  16 H :    0.176923
  17 H :    0.164709
  18 H :    0.168319
  19 H :    0.164641
Sum of atomic charges:    0.0000000

LOEWDIN ATOMIC CHARGES
----------------------
   0 C :   -0.423987
   1 C :   -0.296465
   2 C :   -0.229373
   3 C :    0.367990
   4 O :   -0.503008
   5 O :   -0.599522
   6 C :    0.035925
   7 C :   -0.390207
   8 H :    0.155248
   9 H :    0.156087
  10 H :    0.155762
  11 H :    0.164110
  12 H :    0.160065
  13 H :    0.194144
  14 H :    0.185831
  15 H :    0.184501
  16 H :    0.191680
  17 H :    0.162005
  18 H :    0.167761
  19 H :    0.161454

  Mayer bond orders larger than 0.100000
B(  0-C ,  1-C ) :   0.9063 B(  0-C ,  8-H ) :   0.9781 B(  0-C ,  9-H ) :   0.9725
B(  0-C , 10-H ) :   0.9666 B(  1-C ,  2-C ) :   0.8802 B(  1-C , 11-H ) :   0.9689
B(  1-C , 12-H ) :   0.9605 B(  2-C ,  3-C ) :   0.9563 B(  2-C , 13-H ) :   0.9214
B(  2-C , 14-H ) :   0.9877 B(  3-C ,  4-O ) :   1.7669 B(  3-C ,  5-O ) :   1.0959
B(  5-O ,  6-C ) :   0.7722 B(  6-C ,  7-C ) :   0.9438 B(  6-C , 15-H ) :   0.9382
B(  6-C , 16-H ) :   0.9613 B(  7-C , 17-H ) :   0.9668 B(  7-C , 18-H ) :   0.9616
B(  7-C , 19-H ) :   0.9716

Dispersion correction           -0.005015093
FINAL SINGLE POINT ENERGY      -386.240769315006

DIPOLE MOMENT
-------------

Method             : SCF
Type of density    : Electron Density
Multiplicity       :   1
Irrep              :   0
Energy             :  -386.2475233174894811 Eh
Relativity type    :
Basis              : AO
                                X                 Y                 Z
Electronic contribution:      1.674981322       4.890662464      -0.359215258
Nuclear contribution   :     -1.275904854      -5.550605279      -0.482779807
                        -----------------------------------------
Total Dipole Moment    :      0.399076468      -0.659942814      -0.841995065
                        -----------------------------------------
Magnitude (a.u.)       :      1.141815324
Magnitude (Debye)      :      2.902263907

Rotational constants in cm-1:             0.128482             0.034305             0.031928
Rotational constants in MHz :          3851.781654          1028.435165           957.189632

                             ****ORCA TERMINATED NORMALLY****
TOTAL RUN TIME: 0 days 0 hours 0 minutes 39 seconds 249 msec
