                         Program Version 6.0.0  -   RELEASE  -
|  1> ! pbe def2-sv(p) def2/J RI DEFGRID1 loosescf d4 GCP(DFT/SV(P)) printgap
|  2> %output
|  3>     printlevel normal
|  4> end
|  5> * xyz 0 1
|  6> C -0.0421918327 0.9038657197 0.2836350228
|  7> C -0.8640066021 -0.3757684519 0.257816835
|  8> Cl -2.4950487907 -0.0541342449 -0.4202141064
|  9> C 1.3379926766 0.6683905644 0.8740577923
| 10> Cl 2.3130096326 -0.4317635067 -0.1683743347
| 11> H 0.0498180911 1.2989838017 -0.7287098088
| 12> H -0.5486649936 1.6494808434 0.8984241826
| 13> H -0.4065048652 -1.1301090988 -0.3800499265
| 14> H -1.0186073859 -0.7736047678 1.2592702913
| 15> H 1.282847898 0.1904641237 1.8499389053
| 16> H 1.898780725 1.5980898305 0.9365469301
| 17> *
| 18>
| 19>                          ****END OF INPUT****

CARTESIAN COORDINATES (ANGSTROEM)
---------------------------------
  C     -0.042192    0.903866    0.283635
  C     -0.864007   -0.375768    0.257817
  Cl    -2.495049   -0.054134   -0.420214
  C      1.337993    0.668391    0.874058
  Cl     2.313010   -0.431764   -0.168374
  H      0.049818    1.298984   -0.728710
  H     -0.548665    1.649481    0.898424
  H     -0.406505   -1.130109   -0.380050
  H     -1.018607   -0.773605    1.259270
  H      1.282848    0.190464    1.849939
  H      1.898781    1.598090    0.936547

 Total Charge           Charge          ....    0
 Multiplicity           Mult            ....    1
 Number of Electrons    NEL             ....   58
 Basis Dimension        Dim             ....   90

ORBITAL ENERGIES
----------------

  NO   OCC          E(Eh)            E(eV)
   0   2.0000    -100.628339     -2738.2363
   1   2.0000    -100.620830     -2738.0320
   2   2.0000      -9.954956      -270.8881
   3   2.0000      -9.946115      -270.6475
   4   2.0000      -9.914621      -269.7905
   5   2.0000      -9.164011      -249.3654
   6   2.0000      -9.156591      -249.1635
   7   2.0000      -6.995622      -190.3606
   8   2.0000      -6.988264      -190.1603
   9   2.0000      -6.983745      -190.0374
  10   2.0000      -6.983521      -190.0313
  11   2.0000      -6.976256      -189.8336
  12   2.0000      -6.976092      -189.8291
  13   2.0000      -0.795712       -21.6524
  14   2.0000      -0.770272       -20.9602
  15   2.0000      -0.688045       -18.7227
  16   2.0000      -0.599618       -16.3164
  17   2.0000      -0.541333       -14.7304
  18   2.0000      -0.449812       -12.2400
  19   2.0000      -0.431142       -11.7320
  20   2.0000      -0.405430       -11.0323
  21   2.0000      -0.385904       -10.5010
  22   2.0000      -0.351205        -9.5568
  23   2.0000      -0.342985        -9.3331
  24   2.0000      -0.328570        -8.9409
  25   2.0000      -0.263739        -7.1767
  26   2.0000      -0.256045        -6.9673
  27   2.0000      -0.248908        -6.7731
  28   2.0000      -0.243366        -6.6223
  29   0.0000      -0.003180        -0.0865
  30   0.0000       0.003955         0.1076
  31   0.0000       0.046068         1.2536
  32   0.0000       0.064987         1.7684
  33   0.0000       0.074377         2.0239

MULLIKEN ATOMIC CHARGES
-----------------------
   0 C :   -0.142287
   1 C :   -0.180233
   2 Cl:   -0.146513
   3 C :   -0.176746
   4 Cl:   -0.148319
   5 H :    0.116690
   6 H :    0.110820
   7 H :    0.146215
   8 H :    0.133783
   9 H :    0.138783
  10 H :    0.147807
Sum of atomic charges:   -0.0000000

LOEWDIN ATOMIC CHARGES
----------------------
   0 C :   -0.270494
   1 C :   -0.278755
   2 Cl:    0.025249
   3 C :   -0.268854
   4 Cl:    0.025988
   5 H :    0.129410
   6 H :    0.131352
   7 H :    0.124794
   8 H :    0.124405
   9 H :    0.126090
  10 H :    0.130815

  Mayer bond orders larger than 0.100000
B(  0-C ,  1-C ) :   1.0980 B(  0-C ,  3-C ) :   1.0902 B(  0-C ,  5-H ) :   0.9148
B(  0-C ,  6-H ) :   0.9042 B(  1-C ,  2-Cl) :   1.0409 B(  1-C ,  7-H ) :   0.9200
B(  1-C ,  8-H ) :   0.9286 B(  3-C ,  4-Cl) :   1.0298 B(  3-C ,  9-H ) :   0.9256
B(  3-C , 10-H ) :   0.9295

Dispersion correction           -0.008969816
FINAL SINGLE POINT ENERGY     -1037.361754539839

DIPOLE MOMENT
-------------

Method             : SCF
Type of density    : Electron Density
Multiplicity       :   1
Irrep              :   0
Energy             : -1037.3982654587362049 Eh
Relativity type    :
Basis              : AO
                                X                 Y                 Z
Electronic contribution:     -1.151653680      -2.958378747      -3.762251239
Nuclear contribution   :      1.424245531       3.310303441       4.388294210
                        -----------------------------------------
Total Dipole Moment    :      0.272591852       0.351924694       0.626042972
                        -----------------------------------------
Magnitude (a.u.)       :      0.768171277
Magnitude (Debye)      :      1.952536215

Rotational constants in cm-1:             0.308663             0.036445             0.034088
Rotational constants in MHz :          9253.482664          1092.600258          1021.942910

                             ****ORCA TERMINATED NORMALLY****
TOTAL RUN TIME: 0 days 0 hours 0 minutes 5 seconds 953 msec
