                         Program Version 6.0.0  -   RELEASE  -
|  1> ! pbe def2-sv(p) def2/J RI DEFGRID1 loosescf d4 GCP(DFT/SV(P)) printgap
|  2> %output
|  3>     printlevel normal
|  4> end
|  5> * xyz 0 1
|  6> C -4.4748286023 -1.229894938 -0.2682157493
|  7> C -3.6538335298 -2.3491186353 -0.268527127
|  8> C -2.2828856661 -2.2019975489 -0.1675518781
|  9> C -1.7073153589 -0.9372285241 -0.0663682655
| 10> C -2.536509696 0.1899623399 -0.0669338697
| 11> C -3.9176806615 0.0306709012 -0.1674052559
| 12> C -1.9693882164 1.540230168 0.0377905098
| 13> O -2.6873418148 2.5385631118 0.0554579917
| 14> C -0.5018827747 1.6407490472 0.1158769401
| 15> C 0.0359149469 2.9147129964 0.1831559956
| 16> C 1.4152478376 3.0956424544 0.2501243317
| 17> C 2.2516015744 2.0122119236 0.2532821516
| 18> C 1.747020493 0.6889758199 0.1936905829
| 19> C 0.3324055343 0.4980947064 0.1205917131
| 20> C -0.2380847311 -0.8290796111 0.044063562
| 21> O 0.4404000932 -1.8705991145 0.0662881484
| 22> N 2.5801923812 -0.3542330493 0.2234837821
| 23> C 4.0209302358 -0.2884041207 0.2293048219
| 24> C 4.5905490154 -1.7020741743 0.292880981
| 25> O 4.2753849542 -2.3649757255 -0.9153975237
| 26> H -5.544800136 -1.3416306805 -0.3462375399
| 27> H -4.0836316845 -3.335419276 -0.3470086798
| 28> H -1.6269597874 -3.0599464111 -0.1648065628
| 29> H -4.53171382 0.9191856266 -0.1640508533
| 30> H -0.639622878 3.7562620507 0.1789287025
| 31> H 1.8209931176 4.0939696784 0.29726322
| 32> H 3.3171129681 2.1599988224 0.2999645975
| 33> H 2.1568639255 -1.2703825445 0.0938026901
| 34> H 4.3715045633 0.275091759 1.0993023577
| 35> H 4.3856423427 0.1921107057 -0.6860946766
| 36> H 4.1555624828 -2.231762733 1.1494047121
| 37> H 5.6782772365 -1.6411363853 0.4242705463
| 38> H 4.5766840095 -3.2811348783 -0.8716578798
| 39> *
| 40>
| 41>                          ****END OF INPUT****

CARTESIAN COORDINATES (ANGSTROEM)
---------------------------------
  C     -4.474829   -1.229895   -0.268216
  C     -3.653834   -2.349119   -0.268527
  C     -2.282886   -2.201998   -0.167552
  C     -1.707315   -0.937229   -0.066368
  C     -2.536510    0.189962   -0.066934
  C     -3.917681    0.030671   -0.167405
  C     -1.969388    1.540230    0.037791
  O     -2.687342    2.538563    0.055458
  C     -0.501883    1.640749    0.115877
  C      0.035915    2.914713    0.183156
  C      1.415248    3.095642    0.250124
  C      2.251602    2.012212    0.253282
  C      1.747020    0.688976    0.193691
  C      0.332406    0.498095    0.120592
  C     -0.238085   -0.829080    0.044064
  O      0.440400   -1.870599    0.066288
  N      2.580192   -0.354233    0.223484
  C      4.020930   -0.288404    0.229305
  C      4.590549   -1.702074    0.292881
  O      4.275385   -2.364976   -0.915398
  H     -5.544800   -1.341631   -0.346238
  H     -4.083632   -3.335419   -0.347009
  H     -1.626960   -3.059946   -0.164807
  H     -4.531714    0.919186   -0.164051
  H     -0.639623    3.756262    0.178929
  H      1.820993    4.093970    0.297263
  H      3.317113    2.159999    0.299965
  H      2.156864   -1.270383    0.093803
  H      4.371505    0.275092    1.099302
  H      4.385642    0.192111   -0.686095
  H      4.155562   -2.231763    1.149405
  H      5.678277   -1.641136    0.424271
  H      4.576684   -3.281135   -0.871658

 Total Charge           Charge          ....    0
 Multiplicity           Mult            ....    1
 Number of Electrons    NEL             ....  140
 Basis Dimension        Dim             ....  306

ORBITAL ENERGIES
----------------

  NO   OCC          E(Eh)            E(eV)
   0   2.0000     -18.759814      -510.4805
   1   2.0000     -18.742796      -510.0174
   2   2.0000     -18.738473      -509.8998
   3   2.0000     -14.012784      -381.3072
   4   2.0000      -9.972071      -271.3538
   5   2.0000      -9.970062      -271.2992
   6   2.0000      -9.953136      -270.8386
   7   2.0000      -9.952002      -270.8078
   8   2.0000      -9.936804      -270.3942
   9   2.0000      -9.909237      -269.6441
  10   2.0000      -9.907555      -269.5983
  11   2.0000      -9.907197      -269.5885
  12   2.0000      -9.906733      -269.5759
  13   2.0000      -9.905362      -269.5386
  14   2.0000      -9.905262      -269.5359
  15   2.0000      -9.904449      -269.5138
  16   2.0000      -9.902081      -269.4493
  17   2.0000      -9.901197      -269.4253
  18   2.0000      -9.900241      -269.3992
  19   2.0000      -9.890794      -269.1422
  20   2.0000      -0.937492       -25.5105
  21   2.0000      -0.934501       -25.4291
  22   2.0000      -0.930760       -25.3273
  23   2.0000      -0.868203       -23.6250
  24   2.0000      -0.792818       -21.5737
  25   2.0000      -0.777602       -21.1596
  26   2.0000      -0.720968       -19.6185
  27   2.0000      -0.705162       -19.1884
  28   2.0000      -0.684063       -18.6143
  29   2.0000      -0.679731       -18.4964
  30   2.0000      -0.652751       -17.7623
  31   2.0000      -0.604812       -16.4578
  32   2.0000      -0.592007       -16.1093
  33   2.0000      -0.579204       -15.7609
  34   2.0000      -0.559661       -15.2292
  35   2.0000      -0.536412       -14.5965
  36   2.0000      -0.519217       -14.1286
  37   2.0000      -0.494222       -13.4485
  38   2.0000      -0.489069       -13.3082
  39   2.0000      -0.485213       -13.2033
  40   2.0000      -0.457400       -12.4465
  41   2.0000      -0.446307       -12.1446
  42   2.0000      -0.430562       -11.7162
  43   2.0000      -0.423044       -11.5116
  44   2.0000      -0.418452       -11.3867
  45   2.0000      -0.408477       -11.1152
  46   2.0000      -0.403873       -10.9900
  47   2.0000      -0.393571       -10.7096
  48   2.0000      -0.384483       -10.4623
  49   2.0000      -0.382527       -10.4091
  50   2.0000      -0.377693       -10.2776
  51   2.0000      -0.371783       -10.1167
  52   2.0000      -0.364526        -9.9193
  53   2.0000      -0.357744        -9.7347
  54   2.0000      -0.353304        -9.6139
  55   2.0000      -0.343909        -9.3582
  56   2.0000      -0.334691        -9.1074
  57   2.0000      -0.326667        -8.8891
  58   2.0000      -0.317337        -8.6352
  59   2.0000      -0.312565        -8.5053
  60   2.0000      -0.304270        -8.2796
  61   2.0000      -0.297460        -8.0943
  62   2.0000      -0.276349        -7.5198
  63   2.0000      -0.244946        -6.6653
  64   2.0000      -0.238069        -6.4782
  65   2.0000      -0.236966        -6.4482
  66   2.0000      -0.232885        -6.3371
  67   2.0000      -0.212583        -5.7847
  68   2.0000      -0.200898        -5.4667
  69   2.0000      -0.184189        -5.0120
  70   0.0000      -0.121662        -3.3106
  71   0.0000      -0.074171        -2.0183
  72   0.0000      -0.047354        -1.2886
  73   0.0000      -0.026657        -0.7254
  74   0.0000       0.014869         0.4046

MULLIKEN ATOMIC CHARGES
-----------------------
   0 C :   -0.021710
   1 C :   -0.017173
   2 C :   -0.133824
   3 C :    0.049414
   4 C :    0.037918
   5 C :   -0.126254
   6 C :    0.084881
   7 O :   -0.152281
   8 C :    0.021508
   9 C :   -0.141127
  10 C :   -0.004257
  11 C :   -0.163674
  12 C :    0.077420
  13 C :    0.049212
  14 C :    0.072398
  15 O :   -0.214397
  16 N :   -0.252809
  17 C :   -0.056064
  18 C :   -0.010980
  19 O :   -0.437067
  20 H :    0.061179
  21 H :    0.060581
  22 H :    0.057353
  23 H :    0.057220
  24 H :    0.053935
  25 H :    0.058013
  26 H :    0.040728
  27 H :    0.254884
  28 H :    0.105290
  29 H :    0.108158
  30 H :    0.088884
  31 H :    0.085721
  32 H :    0.306920
Sum of atomic charges:   -0.0000000

LOEWDIN ATOMIC CHARGES
----------------------
   0 C :   -0.109143
   1 C :   -0.106012
   2 C :   -0.089285
   3 C :   -0.044096
   4 C :   -0.053713
   5 C :   -0.083698
   6 C :    0.058740
   7 O :   -0.132760
   8 C :   -0.045213
   9 C :   -0.112938
  10 C :   -0.096891
  11 C :   -0.148048
  12 C :    0.034731
  13 C :   -0.089313
  14 C :    0.055750
  15 O :   -0.174147
  16 N :   -0.128524
  17 C :   -0.165887
  18 C :   -0.125512
  19 O :   -0.344166
  20 H :    0.128055
  21 H :    0.127804
  22 H :    0.134410
  23 H :    0.135328
  24 H :    0.134194
  25 H :    0.128877
  26 H :    0.128005
  27 H :    0.241172
  28 H :    0.121243
  29 H :    0.122345
  30 H :    0.103614
  31 H :    0.104046
  32 H :    0.291031

  Mayer bond orders larger than 0.100000
B(  0-C ,  1-C ) :   1.3274 B(  0-C ,  5-C ) :   1.3370 B(  0-C , 20-H ) :   0.9668
B(  1-C ,  2-C ) :   1.3353 B(  1-C , 21-H ) :   0.9666 B(  2-C ,  3-C ) :   1.3827
B(  2-C , 22-H ) :   0.9538 B(  3-C ,  4-C ) :   1.3360 B(  3-C , 14-C ) :   0.9759
B(  4-C ,  5-C ) :   1.3785 B(  4-C ,  6-C ) :   0.9559 B(  5-C , 23-H ) :   0.9566
B(  6-C ,  7-O ) :   2.1543 B(  6-C ,  8-C ) :   0.9502 B(  8-C ,  9-C ) :   1.4251
B(  8-C , 13-C ) :   1.3044 B(  9-C , 10-C ) :   1.2343 B(  9-C , 24-H ) :   0.9560
B( 10-C , 11-C ) :   1.3795 B( 10-C , 25-H ) :   0.9661 B( 11-C , 12-C ) :   1.2384
B( 11-C , 26-H ) :   0.9556 B( 12-C , 13-C ) :   1.2102 B( 12-C , 16-N ) :   1.4128
B( 13-C , 14-C ) :   1.0241 B( 14-C , 15-O ) :   1.9724 B( 15-O , 27-H ) :   0.1377
B( 16-N , 17-C ) :   1.0043 B( 16-N , 27-H ) :   0.7565 B( 17-C , 18-C ) :   1.1215
B( 17-C , 28-H ) :   0.9098 B( 17-C , 29-H ) :   0.9055 B( 18-C , 19-O ) :   1.0763
B( 18-C , 30-H ) :   0.9155 B( 18-C , 31-H ) :   0.9190 B( 19-O , 32-H ) :   0.8492

Dispersion correction           -0.046210941
FINAL SINGLE POINT ENERGY      -896.123056069238

DIPOLE MOMENT
-------------

Method             : SCF
Type of density    : Electron Density
Multiplicity       :   1
Irrep              :   0
Energy             :  -896.2203010369298681 Eh
Relativity type    :
Basis              : AO
                                X                 Y                 Z
Electronic contribution:    -11.709306686       3.588453212      -0.576586647
Nuclear contribution   :     13.212306817      -4.497270260       0.893010609
                        -----------------------------------------
Total Dipole Moment    :      1.503000131      -0.908817048       0.316423963
                        -----------------------------------------
Magnitude (a.u.)       :      1.784679788
Magnitude (Debye)      :      4.536295516

Rotational constants in cm-1:             0.019105             0.007991             0.005703
Rotational constants in MHz :           572.745257           239.571324           170.984064

                             ****ORCA TERMINATED NORMALLY****
TOTAL RUN TIME: 0 days 0 hours 0 minutes 34 seconds 839 msec
