                         Program Version 6.0.0  -   RELEASE  -
|  1> ! r2scan-3c def2/J RI DEFGRID2 scfconv6 printgap
|  2> %output
|  3>     printlevel normal
|  4> end
|  5> * xyz 0 1
|  6> C 2.1514911145 -1.0127445316 -0.4810644968
|  7> C 2.1078497611 0.4395619872 -0.0147568171
|  8> C 0.9725830258 0.7153108737 0.9832096496
|  9> C -0.2341536847 1.430896793 0.3718011065
| 10> C -0.9562850923 0.6403035087 -0.703980414
| 11> Cl -1.6714560673 -0.8729035509 -0.0377417352
| 12> H 2.3629611959 -1.671726735 0.3586111718
| 13> H 2.9319863009 -1.1498356815 -1.2264237053
| 14> H 1.2040189073 -1.3197301368 -0.9159325409
| 15> H 3.0654935353 0.6738156529 0.4538932932
| 16> H 2.002834402 1.0977502335 -0.8791961012
| 17> H 1.3452805618 1.3426621822 1.7943768568
| 18> H 0.6420441787 -0.2257597725 1.4258514943
| 19> H 0.0948865117 2.3672641914 -0.0840461967
| 20> H -0.9404994217 1.6738893525 1.1678442485
| 21> H -1.7911491851 1.2062416875 -1.11339656
| 22> H -0.2859945746 0.3339927749 -1.5036157931
| 23> *
| 24>
| 25>                          ****END OF INPUT****

CARTESIAN COORDINATES (ANGSTROEM)
---------------------------------
  C      2.151491   -1.012745   -0.481064
  C      2.107850    0.439562   -0.014757
  C      0.972583    0.715311    0.983210
  C     -0.234154    1.430897    0.371801
  C     -0.956285    0.640304   -0.703980
  Cl    -1.671456   -0.872904   -0.037742
  H      2.362961   -1.671727    0.358611
  H      2.931986   -1.149836   -1.226424
  H      1.204019   -1.319730   -0.915933
  H      3.065494    0.673816    0.453893
  H      2.002834    1.097750   -0.879196
  H      1.345281    1.342662    1.794377
  H      0.642044   -0.225760    1.425851
  H      0.094887    2.367264   -0.084046
  H     -0.940499    1.673889    1.167844
  H     -1.791149    1.206242   -1.113397
  H     -0.285995    0.333993   -1.503616

 Total Charge           Charge          ....    0
 Multiplicity           Mult            ....    1
 Number of Electrons    NEL             ....   58
 Basis Dimension        Dim             ....  177

ORBITAL ENERGIES
----------------

  NO   OCC          E(Eh)            E(eV)
   0   2.0000    -101.198217     -2753.7435
   1   2.0000     -10.091666      -274.6082
   2   2.0000     -10.041673      -273.2478
   3   2.0000     -10.028301      -272.8839
   4   2.0000     -10.027587      -272.8645
   5   2.0000     -10.016115      -272.5523
   6   2.0000      -9.354192      -254.5405
   7   2.0000      -7.100328      -193.2097
   8   2.0000      -7.090318      -192.9374
   9   2.0000      -7.090238      -192.9352
  10   2.0000      -0.822674       -22.3861
  11   2.0000      -0.763356       -20.7720
  12   2.0000      -0.709305       -19.3012
  13   2.0000      -0.643725       -17.5166
  14   2.0000      -0.580397       -15.7934
  15   2.0000      -0.536170       -14.5899
  16   2.0000      -0.457985       -12.4624
  17   2.0000      -0.437728       -11.9112
  18   2.0000      -0.411124       -11.1873
  19   2.0000      -0.400534       -10.8991
  20   2.0000      -0.373660       -10.1678
  21   2.0000      -0.368543       -10.0286
  22   2.0000      -0.348113        -9.4726
  23   2.0000      -0.331410        -9.0181
  24   2.0000      -0.303800        -8.2668
  25   2.0000      -0.297180        -8.0867
  26   2.0000      -0.290336        -7.9005
  27   2.0000      -0.264092        -7.1863
  28   2.0000      -0.262984        -7.1562
  29   0.0000       0.009023         0.2455
  30   0.0000       0.079635         2.1670
  31   0.0000       0.102726         2.7953
  32   0.0000       0.113615         3.0916
  33   0.0000       0.118865         3.2345

MULLIKEN ATOMIC CHARGES
-----------------------
   0 C :   -0.479944
   1 C :   -0.267751
   2 C :   -0.251408
   3 C :   -0.325864
   4 C :   -0.159227
   5 Cl:   -0.206075
   6 H :    0.149818
   7 H :    0.144076
   8 H :    0.153013
   9 H :    0.142385
  10 H :    0.145271
  11 H :    0.149492
  12 H :    0.168926
  13 H :    0.152552
  14 H :    0.157931
  15 H :    0.165892
  16 H :    0.160915
Sum of atomic charges:    0.0000000

LOEWDIN ATOMIC CHARGES
----------------------
   0 C :   -0.427066
   1 C :   -0.320644
   2 C :   -0.317286
   3 C :   -0.325855
   4 C :   -0.320414
   5 Cl:   -0.006502
   6 H :    0.151305
   7 H :    0.149303
   8 H :    0.151565
   9 H :    0.153992
  10 H :    0.149523
  11 H :    0.156954
  12 H :    0.164334
  13 H :    0.161902
  14 H :    0.162743
  15 H :    0.158073
  16 H :    0.158070

  Mayer bond orders larger than 0.100000
B(  0-C ,  1-C ) :   0.9021 B(  0-C ,  6-H ) :   0.9823 B(  0-C ,  7-H ) :   0.9750
B(  0-C ,  8-H ) :   0.9725 B(  1-C ,  2-C ) :   0.8274 B(  1-C ,  9-H ) :   0.9612
B(  1-C , 10-H ) :   0.9905 B(  2-C ,  3-C ) :   0.8904 B(  2-C , 11-H ) :   0.9693
B(  2-C , 12-H ) :   0.9794 B(  3-C ,  4-C ) :   0.9213 B(  3-C , 13-H ) :   0.9733
B(  3-C , 14-H ) :   0.9694 B(  4-C ,  5-Cl) :   0.9636 B(  4-C , 15-H ) :   0.9499
B(  4-C , 16-H ) :   0.9630

Dispersion correction           -0.004658778
FINAL SINGLE POINT ENERGY      -657.264956064666

DIPOLE MOMENT
-------------

Method             : SCF
Type of density    : Electron Density
Multiplicity       :   1
Irrep              :   0
Energy             :  -657.2707191539016094 Eh
Relativity type    :
Basis              : AO
                                X                 Y                 Z
Electronic contribution:    -11.802581000      -4.531132399       0.269623025
Nuclear contribution   :     12.217913814       5.232537617      -0.439098196
                        -----------------------------------------
Total Dipole Moment    :      0.415332814       0.701405217      -0.169475170
                        -----------------------------------------
Magnitude (a.u.)       :      0.832581803
Magnitude (Debye)      :      2.116254762

Rotational constants in cm-1:             0.131892             0.055933             0.045637
Rotational constants in MHz :          3954.009310          1676.823421          1368.157830

                             ****ORCA TERMINATED NORMALLY****
TOTAL RUN TIME: 0 days 0 hours 0 minutes 20 seconds 29 msec
