                         Program Version 6.0.0  -   RELEASE  -
|  1> ! pbe def2-sv(p) def2/J RI DEFGRID1 loosescf d4 GCP(DFT/SV(P)) printgap
|  2> %output
|  3>     printlevel normal
|  4> end
|  5> * xyz 0 1
|  6> C -3.5605329806 -0.5931142589 0.4452854991
|  7> C -2.2063932499 0.1026804235 0.4926549875
|  8> C -1.2016452497 -0.571503856 -0.4538865947
|  9> C 0.1038036561 0.1742637315 -0.394055234
| 10> O 0.3656629003 1.1643966769 -1.0454780617
| 11> O 0.9244372614 -0.3532099132 0.5051379638
| 12> C 2.20029948 0.2731446359 0.721110206
| 13> C 3.2343866827 -0.2244702765 -0.277113715
| 14> H -3.4638700729 -1.6341246234 0.7421151936
| 15> H -4.2559436199 -0.1034802056 1.1214246245
| 16> H -3.9726196302 -0.5566919324 -0.559803709
| 17> H -1.8113649171 0.0731052312 1.5100264197
| 18> H -2.3161840813 1.1498914228 0.2029739363
| 19> H -1.5808050036 -0.5341669312 -1.4748166229
| 20> H -1.0389831734 -1.6037568001 -0.1477132634
| 21> H 2.075058907 1.3569325157 0.6366140308
| 22> H 2.4698169533 -2.6547e-06 1.7417215928
| 23> H 3.3122119137 -1.3071591207 -0.2277340513
| 24> H 2.9471058898 0.0649318656 -1.2856015596
| 25> H 4.1986111702 0.215984369 -0.0453940811
| 26> *
| 27>
| 28>                          ****END OF INPUT****

CARTESIAN COORDINATES (ANGSTROEM)
---------------------------------
  C     -3.560533   -0.593114    0.445285
  C     -2.206393    0.102680    0.492655
  C     -1.201645   -0.571504   -0.453887
  C      0.103804    0.174264   -0.394055
  O      0.365663    1.164397   -1.045478
  O      0.924437   -0.353210    0.505138
  C      2.200299    0.273145    0.721110
  C      3.234387   -0.224470   -0.277114
  H     -3.463870   -1.634125    0.742115
  H     -4.255944   -0.103480    1.121425
  H     -3.972620   -0.556692   -0.559804
  H     -1.811365    0.073105    1.510026
  H     -2.316184    1.149891    0.202974
  H     -1.580805   -0.534167   -1.474817
  H     -1.038983   -1.603757   -0.147713
  H      2.075059    1.356933    0.636614
  H      2.469817   -0.000003    1.741722
  H      3.312212   -1.307159   -0.227734
  H      2.947106    0.064932   -1.285602
  H      4.198611    0.215984   -0.045394

 Total Charge           Charge          ....    0
 Multiplicity           Mult            ....    1
 Number of Electrons    NEL             ....   64
 Basis Dimension        Dim             ....  136

ORBITAL ENERGIES
----------------

  NO   OCC          E(Eh)            E(eV)
   0   2.0000     -18.796194      -511.4704
   1   2.0000     -18.729162      -509.6464
   2   2.0000     -10.002866      -272.1918
   3   2.0000      -9.945465      -270.6299
   4   2.0000      -9.895541      -269.2714
   5   2.0000      -9.895473      -269.2695
   6   2.0000      -9.885566      -268.9999
   7   2.0000      -9.880326      -268.8573
   8   2.0000      -1.002661       -27.2838
   9   2.0000      -0.906344       -24.6629
  10   2.0000      -0.729079       -19.8393
  11   2.0000      -0.696149       -18.9432
  12   2.0000      -0.639215       -17.3939
  13   2.0000      -0.587942       -15.9987
  14   2.0000      -0.533894       -14.5280
  15   2.0000      -0.495692       -13.4885
  16   2.0000      -0.451899       -12.2968
  17   2.0000      -0.431952       -11.7540
  18   2.0000      -0.417141       -11.3510
  19   2.0000      -0.406376       -11.0581
  20   2.0000      -0.389019       -10.5857
  21   2.0000      -0.374199       -10.1825
  22   2.0000      -0.360528        -9.8105
  23   2.0000      -0.345415        -9.3992
  24   2.0000      -0.342363        -9.3162
  25   2.0000      -0.325202        -8.8492
  26   2.0000      -0.315391        -8.5822
  27   2.0000      -0.301343        -8.2000
  28   2.0000      -0.298166        -8.1135
  29   2.0000      -0.286936        -7.8079
  30   2.0000      -0.253471        -6.8973
  31   2.0000      -0.214265        -5.8305
  32   0.0000      -0.017857        -0.4859
  33   0.0000       0.041350         1.1252
  34   0.0000       0.052366         1.4250
  35   0.0000       0.077911         2.1201
  36   0.0000       0.079543         2.1645

MULLIKEN ATOMIC CHARGES
-----------------------
   0 C :   -0.241525
   1 C :   -0.242125
   2 C :   -0.114759
   3 C :    0.114032
   4 O :   -0.215976
   5 O :   -0.241439
   6 C :   -0.009686
   7 C :   -0.305008
   8 H :    0.098860
   9 H :    0.107200
  10 H :    0.100924
  11 H :    0.097103
  12 H :    0.105518
  13 H :    0.098967
  14 H :    0.092016
  15 H :    0.105414
  16 H :    0.099704
  17 H :    0.111992
  18 H :    0.127673
  19 H :    0.111113
Sum of atomic charges:    0.0000000

LOEWDIN ATOMIC CHARGES
----------------------
   0 C :   -0.339013
   1 C :   -0.224555
   2 C :   -0.242215
   3 C :    0.037610
   4 O :   -0.175537
   5 O :   -0.068792
   6 C :   -0.112982
   7 C :   -0.356434
   8 H :    0.118165
   9 H :    0.121966
  10 H :    0.119266
  11 H :    0.118702
  12 H :    0.122737
  13 H :    0.133944
  14 H :    0.128282
  15 H :    0.118489
  16 H :    0.116145
  17 H :    0.123779
  18 H :    0.130739
  19 H :    0.129702

  Mayer bond orders larger than 0.100000
B(  0-C ,  1-C ) :   1.1578 B(  0-C ,  8-H ) :   0.9531 B(  0-C ,  9-H ) :   0.9516
B(  0-C , 10-H ) :   0.9533 B(  1-C ,  2-C ) :   1.1289 B(  1-C , 11-H ) :   0.9272
B(  1-C , 12-H ) :   0.9259 B(  2-C ,  3-C ) :   1.0248 B(  2-C , 13-H ) :   0.9014
B(  2-C , 14-H ) :   0.9019 B(  3-C ,  4-O ) :   2.0371 B(  3-C ,  5-O ) :   1.2097
B(  5-O ,  6-C ) :   0.9227 B(  6-C ,  7-C ) :   1.1731 B(  6-C , 15-H ) :   0.9139
B(  6-C , 16-H ) :   0.9373 B(  7-C , 17-H ) :   0.9490 B(  7-C , 18-H ) :   0.9462
B(  7-C , 19-H ) :   0.9445

Dispersion correction           -0.014722441
FINAL SINGLE POINT ENERGY      -385.457704126500

DIPOLE MOMENT
-------------

Method             : SCF
Type of density    : Electron Density
Multiplicity       :   1
Irrep              :   0
Energy             :  -385.5326654970217533 Eh
Relativity type    :
Basis              : AO
                                X                 Y                 Z
Electronic contribution:      3.307418535       2.212573835      -1.558806519
Nuclear contribution   :     -3.205316911      -2.688519014       2.068912922
                        -----------------------------------------
Total Dipole Moment    :      0.102101624      -0.475945179       0.510106402
                        -----------------------------------------
Magnitude (a.u.)       :      0.705093680
Magnitude (Debye)      :      1.792205705

Rotational constants in cm-1:             0.185615             0.029717             0.028061
Rotational constants in MHz :          5564.603111           890.892477           841.244050

                             ****ORCA TERMINATED NORMALLY****
TOTAL RUN TIME: 0 days 0 hours 0 minutes 10 seconds 780 msec
