                         Program Version 6.0.0  -   RELEASE  -
|  1> ! pbe def2-sv(p) def2/J RI DEFGRID1 loosescf d4 GCP(DFT/SV(P)) printgap
|  2> %output
|  3>     printlevel normal
|  4> end
|  5> * xyz 0 1
|  6> C -2.5652247729 -0.5696887222 1.0867236926
|  7> C -2.0893877098 -0.8151674106 -0.3400145217
|  8> C -1.3760530521 0.4127925996 -0.9197983147
|  9> C -0.104780215 0.7092160667 -0.1662526792
| 10> O 0.1118174967 1.7298467108 0.4562641739
| 11> O 0.7652728444 -0.2846275651 -0.2650629734
| 12> C 2.0339269816 -0.1607875724 0.3979722816
| 13> C 3.051475152 -1.002165857 -0.3497272032
| 14> H -3.2703149585 0.257640298 1.116727556
| 15> H -3.054289085 -1.4558636242 1.482240278
| 16> H -1.7267300195 -0.3196536388 1.7344204977
| 17> H -2.9455776739 -1.0497258721 -0.9732127031
| 18> H -1.4043824583 -1.6637569714 -0.36171995
| 19> H -2.0172057078 1.2922857693 -0.8627476124
| 20> H -1.1110992958 0.2199950398 -1.9598292315
| 21> H 2.3131661156 0.8976641889 0.419902842
| 22> H 1.9099178901 -0.5096832594 1.4281032188
| 23> H 2.7262975142 -2.0378249991 -0.3781367583
| 24> H 3.1613231893 -0.6411627302 -1.3683160837
| 25> H 4.0091858604 -0.9402511779 0.1563991911
| 26> *
| 27>
| 28>                          ****END OF INPUT****

CARTESIAN COORDINATES (ANGSTROEM)
---------------------------------
  C     -2.565225   -0.569689    1.086724
  C     -2.089388   -0.815167   -0.340015
  C     -1.376053    0.412793   -0.919798
  C     -0.104780    0.709216   -0.166253
  O      0.111817    1.729847    0.456264
  O      0.765273   -0.284628   -0.265063
  C      2.033927   -0.160788    0.397972
  C      3.051475   -1.002166   -0.349727
  H     -3.270315    0.257640    1.116728
  H     -3.054289   -1.455864    1.482240
  H     -1.726730   -0.319654    1.734420
  H     -2.945578   -1.049726   -0.973213
  H     -1.404382   -1.663757   -0.361720
  H     -2.017206    1.292286   -0.862748
  H     -1.111099    0.219995   -1.959829
  H      2.313166    0.897664    0.419903
  H      1.909918   -0.509683    1.428103
  H      2.726298   -2.037825   -0.378137
  H      3.161323   -0.641163   -1.368316
  H      4.009186   -0.940251    0.156399

 Total Charge           Charge          ....    0
 Multiplicity           Mult            ....    1
 Number of Electrons    NEL             ....   64
 Basis Dimension        Dim             ....  136

ORBITAL ENERGIES
----------------

  NO   OCC          E(Eh)            E(eV)
   0   2.0000     -18.797514      -511.5063
   1   2.0000     -18.728775      -509.6359
   2   2.0000     -10.003553      -272.2105
   3   2.0000      -9.946703      -270.6636
   4   2.0000      -9.895845      -269.2796
   5   2.0000      -9.893543      -269.2170
   6   2.0000      -9.889855      -269.1166
   7   2.0000      -9.877346      -268.7762
   8   2.0000      -1.004215       -27.3261
   9   2.0000      -0.905827       -24.6488
  10   2.0000      -0.730716       -19.8838
  11   2.0000      -0.698336       -19.0027
  12   2.0000      -0.636446       -17.3186
  13   2.0000      -0.582881       -15.8610
  14   2.0000      -0.535309       -14.5665
  15   2.0000      -0.506358       -13.7787
  16   2.0000      -0.454194       -12.3592
  17   2.0000      -0.429678       -11.6921
  18   2.0000      -0.417801       -11.3689
  19   2.0000      -0.402354       -10.9486
  20   2.0000      -0.391580       -10.6554
  21   2.0000      -0.367188        -9.9917
  22   2.0000      -0.360188        -9.8012
  23   2.0000      -0.354044        -9.6340
  24   2.0000      -0.342486        -9.3195
  25   2.0000      -0.324359        -8.8263
  26   2.0000      -0.311955        -8.4887
  27   2.0000      -0.299527        -8.1505
  28   2.0000      -0.297540        -8.0965
  29   2.0000      -0.292147        -7.9497
  30   2.0000      -0.254755        -6.9322
  31   2.0000      -0.212007        -5.7690
  32   0.0000      -0.018734        -0.5098
  33   0.0000       0.036443         0.9917
  34   0.0000       0.051657         1.4057
  35   0.0000       0.070266         1.9120
  36   0.0000       0.080862         2.2004

MULLIKEN ATOMIC CHARGES
-----------------------
   0 C :   -0.287161
   1 C :   -0.215104
   2 C :   -0.102177
   3 C :    0.081774
   4 O :   -0.205169
   5 O :   -0.245417
   6 C :   -0.027323
   7 C :   -0.279213
   8 H :    0.103227
   9 H :    0.105912
  10 H :    0.118587
  11 H :    0.093941
  12 H :    0.101952
  13 H :    0.096741
  14 H :    0.105231
  15 H :    0.113147
  16 H :    0.102003
  17 H :    0.113635
  18 H :    0.114128
  19 H :    0.111288
Sum of atomic charges:    0.0000000

LOEWDIN ATOMIC CHARGES
----------------------
   0 C :   -0.342254
   1 C :   -0.229819
   2 C :   -0.242396
   3 C :    0.032013
   4 O :   -0.168979
   5 O :   -0.070539
   6 C :   -0.110599
   7 C :   -0.350876
   8 H :    0.120520
   9 H :    0.120596
  10 H :    0.120802
  11 H :    0.118504
  12 H :    0.119180
  13 H :    0.131774
  14 H :    0.136764
  15 H :    0.118844
  16 H :    0.114884
  17 H :    0.125482
  18 H :    0.126126
  19 H :    0.129975

  Mayer bond orders larger than 0.100000
B(  0-C ,  1-C ) :   1.1520 B(  0-C ,  8-H ) :   0.9535 B(  0-C ,  9-H ) :   0.9515
B(  0-C , 10-H ) :   0.9483 B(  1-C ,  2-C ) :   1.1099 B(  1-C , 11-H ) :   0.9273
B(  1-C , 12-H ) :   0.9242 B(  2-C ,  3-C ) :   1.0315 B(  2-C , 13-H ) :   0.9110
B(  2-C , 14-H ) :   0.8942 B(  3-C ,  4-O ) :   2.0664 B(  3-C ,  5-O ) :   1.1880
B(  5-O ,  6-C ) :   0.9138 B(  6-C ,  7-C ) :   1.1564 B(  6-C , 15-H ) :   0.9179
B(  6-C , 16-H ) :   0.9354 B(  7-C , 17-H ) :   0.9487 B(  7-C , 18-H ) :   0.9523
B(  7-C , 19-H ) :   0.9447

Dispersion correction           -0.015021864
FINAL SINGLE POINT ENERGY      -385.456999170238

DIPOLE MOMENT
-------------

Method             : SCF
Type of density    : Electron Density
Multiplicity       :   1
Irrep              :   0
Energy             :  -385.5319707193496015 Eh
Relativity type    :
Basis              : AO
                                X                 Y                 Z
Electronic contribution:      1.510493847       4.799504080      -0.664306783
Nuclear contribution   :     -1.309536049      -5.560978048       0.409841190
                        -----------------------------------------
Total Dipole Moment    :      0.200957798      -0.761473968      -0.254465593
                        -----------------------------------------
Magnitude (a.u.)       :      0.827634810
Magnitude (Debye)      :      2.103680506

Rotational constants in cm-1:             0.116571             0.036803             0.033364
Rotational constants in MHz :          3494.711052          1103.316579          1000.233238

                             ****ORCA TERMINATED NORMALLY****
TOTAL RUN TIME: 0 days 0 hours 0 minutes 10 seconds 882 msec
