                         Program Version 6.0.0  -   RELEASE  -
|  1> ! r2scan-3c def2/J RI DEFGRID2 scfconv6 printgap
|  2> %output
|  3>     printlevel normal
|  4> end
|  5> * xyz 0 1
|  6> C -3.2947480563 0.011371927 0.9175147295
|  7> C -2.6694439393 -0.574007656 -0.3437805878
|  8> C -1.1489017812 -0.708523389 -0.2544179061
|  9> C -0.4470839034 0.6480915705 -0.1962189089
| 10> C 1.0548290348 0.5548459014 -0.2139903415
| 11> O 1.7876783092 1.4300507389 -0.6313872269
| 12> O 1.5102107303 -0.5822310357 0.2960622766
| 13> C 2.9272574851 -0.7613787881 0.3475030393
| 14> H -3.0037117677 -0.5686757851 1.7901258098
| 15> H -2.9854751035 1.0422332054 1.0672896639
| 16> H -4.3789919302 -0.0062925691 0.8406376814
| 17> H -3.0901375646 -1.5661019546 -0.518003318
| 18> H -2.9276194315 0.0501015803 -1.2016074268
| 19> H -0.789091484 -1.2536008175 -1.1291695441
| 20> H -0.8844894537 -1.289438413 0.6298337579
| 21> H -0.7122933754 1.1677956441 0.7275355416
| 22> H -0.7484349149 1.284901178 -1.0296875583
| 23> H 3.349349083 -0.689713713 -0.6555532182
| 24> H 3.0814611257 -1.7503092583 0.7671749877
| 25> H 3.37835934 0.0070444055 0.9763854303
| 26> *
| 27>
| 28>                          ****END OF INPUT****

CARTESIAN COORDINATES (ANGSTROEM)
---------------------------------
  C     -3.294748    0.011372    0.917515
  C     -2.669444   -0.574008   -0.343781
  C     -1.148902   -0.708523   -0.254418
  C     -0.447084    0.648092   -0.196219
  C      1.054829    0.554846   -0.213990
  O      1.787678    1.430051   -0.631387
  O      1.510211   -0.582231    0.296062
  C      2.927257   -0.761379    0.347503
  H     -3.003712   -0.568676    1.790126
  H     -2.985475    1.042233    1.067290
  H     -4.378992   -0.006293    0.840638
  H     -3.090138   -1.566102   -0.518003
  H     -2.927619    0.050102   -1.201607
  H     -0.789091   -1.253601   -1.129170
  H     -0.884489   -1.289438    0.629834
  H     -0.712293    1.167796    0.727536
  H     -0.748435    1.284901   -1.029688
  H      3.349349   -0.689714   -0.655553
  H      3.081461   -1.750309    0.767175
  H      3.378359    0.007044    0.976385

 Total Charge           Charge          ....    0
 Multiplicity           Mult            ....    1
 Number of Electrons    NEL             ....   64
 Basis Dimension        Dim             ....  222

ORBITAL ENERGIES
----------------

  NO   OCC          E(Eh)            E(eV)
   0   2.0000     -19.000540      -517.0310
   1   2.0000     -18.926457      -515.0151
   2   2.0000     -10.152170      -276.2546
   3   2.0000     -10.087622      -274.4981
   4   2.0000     -10.043144      -273.2878
   5   2.0000     -10.032012      -272.9849
   6   2.0000     -10.030106      -272.9331
   7   2.0000     -10.020643      -272.6756
   8   2.0000      -1.074309       -29.2334
   9   2.0000      -0.973815       -26.4988
  10   2.0000      -0.780557       -21.2400
  11   2.0000      -0.727673       -19.8010
  12   2.0000      -0.682925       -18.5833
  13   2.0000      -0.627569       -17.0770
  14   2.0000      -0.549209       -14.9447
  15   2.0000      -0.536038       -14.5863
  16   2.0000      -0.472574       -12.8594
  17   2.0000      -0.463357       -12.6086
  18   2.0000      -0.437517       -11.9054
  19   2.0000      -0.432563       -11.7706
  20   2.0000      -0.410739       -11.1768
  21   2.0000      -0.393698       -10.7131
  22   2.0000      -0.376655       -10.2493
  23   2.0000      -0.373068       -10.1517
  24   2.0000      -0.347260        -9.4494
  25   2.0000      -0.337396        -9.1810
  26   2.0000      -0.323600        -8.8056
  27   2.0000      -0.309264        -8.4155
  28   2.0000      -0.301586        -8.2066
  29   2.0000      -0.299682        -8.1548
  30   2.0000      -0.273455        -7.4411
  31   2.0000      -0.232225        -6.3192
  32   0.0000      -0.014093        -0.3835
  33   0.0000       0.062367         1.6971
  34   0.0000       0.093753         2.5512
  35   0.0000       0.096898         2.6367
  36   0.0000       0.114452         3.1144

MULLIKEN ATOMIC CHARGES
-----------------------
   0 C :   -0.496000
   1 C :   -0.210119
   2 C :   -0.271116
   3 C :   -0.346366
   4 C :    0.346086
   5 O :   -0.414918
   6 O :   -0.162647
   7 C :   -0.293544
   8 H :    0.147123
   9 H :    0.147950
  10 H :    0.149427
  11 H :    0.144712
  12 H :    0.134993
  13 H :    0.146922
  14 H :    0.155657
  15 H :    0.175897
  16 H :    0.171970
  17 H :    0.162752
  18 H :    0.150256
  19 H :    0.160965
Sum of atomic charges:    0.0000000

LOEWDIN ATOMIC CHARGES
----------------------
   0 C :   -0.425739
   1 C :   -0.315837
   2 C :   -0.290606
   3 C :   -0.226817
   4 C :    0.356670
   5 O :   -0.426167
   6 O :   -0.611146
   7 C :   -0.042112
   8 H :    0.151012
   9 H :    0.148488
  10 H :    0.152376
  11 H :    0.153828
  12 H :    0.152428
  13 H :    0.161360
  14 H :    0.166517
  15 H :    0.183804
  16 H :    0.181667
  17 H :    0.177803
  18 H :    0.175796
  19 H :    0.176675

  Mayer bond orders larger than 0.100000
B(  0-C ,  1-C ) :   0.8850 B(  0-C ,  8-H ) :   0.9810 B(  0-C ,  9-H ) :   0.9832
B(  0-C , 10-H ) :   0.9690 B(  1-C ,  2-C ) :   0.8795 B(  1-C , 11-H ) :   0.9709
B(  1-C , 12-H ) :   0.9834 B(  2-C ,  3-C ) :   0.8985 B(  2-C , 13-H ) :   0.9701
B(  2-C , 14-H ) :   0.9754 B(  3-C ,  4-C ) :   1.0228 B(  3-C , 15-H ) :   0.9276
B(  3-C , 16-H ) :   0.9788 B(  4-C ,  5-O ) :   1.8390 B(  4-C ,  6-O ) :   1.0642
B(  6-O ,  7-C ) :   0.8482 B(  7-C , 17-H ) :   0.9619 B(  7-C , 18-H ) :   0.9702
B(  7-C , 19-H ) :   0.9623

Dispersion correction           -0.005063642
FINAL SINGLE POINT ENERGY      -386.229169193319

DIPOLE MOMENT
-------------

Method             : SCF
Type of density    : Electron Density
Multiplicity       :   1
Irrep              :   0
Energy             :  -386.2361250089517171 Eh
Relativity type    :
Basis              : AO
                                X                 Y                 Z
Electronic contribution:      8.772216876       2.569743710      -1.782490812
Nuclear contribution   :     -9.061705973      -3.338612840       2.119939487
                        -----------------------------------------
Total Dipole Moment    :     -0.289489097      -0.768869130       0.337448676
                        -----------------------------------------
Magnitude (a.u.)       :      0.888163996
Magnitude (Debye)      :      2.257533470

Rotational constants in cm-1:             0.154368             0.030156             0.027472
Rotational constants in MHz :          4627.825369           904.044808           823.604652

                             ****ORCA TERMINATED NORMALLY****
TOTAL RUN TIME: 0 days 0 hours 0 minutes 27 seconds 655 msec
