                         Program Version 6.0.0  -   RELEASE  -
|  1> ! r2scan-3c def2/J RI DEFGRID2 scfconv6 printgap
|  2> %output
|  3>     printlevel normal
|  4> end
|  5> %cpcm
|  6>     smd true
|  7>     smdsolvent "water"
|  8> end
|  9> * xyz 0 1
| 10> C -3.2947480563 0.011371927 0.9175147295
| 11> C -2.6694439393 -0.574007656 -0.3437805878
| 12> C -1.1489017812 -0.708523389 -0.2544179061
| 13> C -0.4470839034 0.6480915705 -0.1962189089
| 14> C 1.0548290348 0.5548459014 -0.2139903415
| 15> O 1.7876783092 1.4300507389 -0.6313872269
| 16> O 1.5102107303 -0.5822310357 0.2960622766
| 17> C 2.9272574851 -0.7613787881 0.3475030393
| 18> H -3.0037117677 -0.5686757851 1.7901258098
| 19> H -2.9854751035 1.0422332054 1.0672896639
| 20> H -4.3789919302 -0.0062925691 0.8406376814
| 21> H -3.0901375646 -1.5661019546 -0.518003318
| 22> H -2.9276194315 0.0501015803 -1.2016074268
| 23> H -0.789091484 -1.2536008175 -1.1291695441
| 24> H -0.8844894537 -1.289438413 0.6298337579
| 25> H -0.7122933754 1.1677956441 0.7275355416
| 26> H -0.7484349149 1.284901178 -1.0296875583
| 27> H 3.349349083 -0.689713713 -0.6555532182
| 28> H 3.0814611257 -1.7503092583 0.7671749877
| 29> H 3.37835934 0.0070444055 0.9763854303
| 30> *
| 31>
| 32>                          ****END OF INPUT****

CARTESIAN COORDINATES (ANGSTROEM)
---------------------------------
  C     -3.294748    0.011372    0.917515
  C     -2.669444   -0.574008   -0.343781
  C     -1.148902   -0.708523   -0.254418
  C     -0.447084    0.648092   -0.196219
  C      1.054829    0.554846   -0.213990
  O      1.787678    1.430051   -0.631387
  O      1.510211   -0.582231    0.296062
  C      2.927257   -0.761379    0.347503
  H     -3.003712   -0.568676    1.790126
  H     -2.985475    1.042233    1.067290
  H     -4.378992   -0.006293    0.840638
  H     -3.090138   -1.566102   -0.518003
  H     -2.927619    0.050102   -1.201607
  H     -0.789091   -1.253601   -1.129170
  H     -0.884489   -1.289438    0.629834
  H     -0.712293    1.167796    0.727536
  H     -0.748435    1.284901   -1.029688
  H      3.349349   -0.689714   -0.655553
  H      3.081461   -1.750309    0.767175
  H      3.378359    0.007044    0.976385

 Total Charge           Charge          ....    0
 Multiplicity           Mult            ....    1
 Number of Electrons    NEL             ....   64
 Basis Dimension        Dim             ....  222

ORBITAL ENERGIES
----------------

  NO   OCC          E(Eh)            E(eV)
   0   2.0000     -19.005024      -517.1530
   1   2.0000     -18.942626      -515.4551
   2   2.0000     -10.162499      -276.5357
   3   2.0000     -10.076869      -274.2055
   4   2.0000     -10.036027      -273.0942
   5   2.0000     -10.022620      -272.7294
   6   2.0000     -10.018388      -272.6142
   7   2.0000     -10.007955      -272.3303
   8   2.0000      -1.080603       -29.4047
   9   2.0000      -0.987702       -26.8767
  10   2.0000      -0.772312       -21.0157
  11   2.0000      -0.720738       -19.6123
  12   2.0000      -0.675040       -18.3688
  13   2.0000      -0.618827       -16.8391
  14   2.0000      -0.541368       -14.7314
  15   2.0000      -0.531602       -14.4656
  16   2.0000      -0.470319       -12.7980
  17   2.0000      -0.461699       -12.5635
  18   2.0000      -0.450377       -12.2554
  19   2.0000      -0.423445       -11.5225
  20   2.0000      -0.405905       -11.0452
  21   2.0000      -0.384565       -10.4645
  22   2.0000      -0.370403       -10.0792
  23   2.0000      -0.367597       -10.0028
  24   2.0000      -0.342040        -9.3074
  25   2.0000      -0.331617        -9.0238
  26   2.0000      -0.322078        -8.7642
  27   2.0000      -0.302001        -8.2179
  28   2.0000      -0.291345        -7.9279
  29   2.0000      -0.289429        -7.8758
  30   2.0000      -0.280647        -7.6368
  31   2.0000      -0.247893        -6.7455
  32   0.0000      -0.021519        -0.5856
  33   0.0000       0.068795         1.8720
  34   0.0000       0.103606         2.8193
  35   0.0000       0.106253         2.8913
  36   0.0000       0.125302         3.4096

MULLIKEN ATOMIC CHARGES
-----------------------
   0 C :   -0.530703
   1 C :   -0.232350
   2 C :   -0.278437
   3 C :   -0.363481
   4 C :    0.397556
   5 O :   -0.507348
   6 O :   -0.176528
   7 C :   -0.328551
   8 H :    0.156767
   9 H :    0.160789
  10 H :    0.157925
  11 H :    0.153706
  12 H :    0.146309
  13 H :    0.160173
  14 H :    0.159387
  15 H :    0.206164
  16 H :    0.183750
  17 H :    0.178172
  18 H :    0.178661
  19 H :    0.178038
Sum of atomic charges:   -0.0000000

LOEWDIN ATOMIC CHARGES
----------------------
   0 C :   -0.433143
   1 C :   -0.315883
   2 C :   -0.290226
   3 C :   -0.224821
   4 C :    0.367777
   5 O :   -0.491868
   6 O :   -0.611055
   7 C :   -0.039874
   8 H :    0.153499
   9 H :    0.152461
  10 H :    0.153697
  11 H :    0.156306
  12 H :    0.155722
  13 H :    0.164390
  14 H :    0.167086
  15 H :    0.196011
  16 H :    0.186794
  17 H :    0.182800
  18 H :    0.188203
  19 H :    0.182127

  Mayer bond orders larger than 0.100000
B(  0-C ,  1-C ) :   0.8820 B(  0-C ,  8-H ) :   0.9781 B(  0-C ,  9-H ) :   0.9790
B(  0-C , 10-H ) :   0.9678 B(  1-C ,  2-C ) :   0.8784 B(  1-C , 11-H ) :   0.9705
B(  1-C , 12-H ) :   0.9845 B(  2-C ,  3-C ) :   0.8893 B(  2-C , 13-H ) :   0.9703
B(  2-C , 14-H ) :   0.9720 B(  3-C ,  4-C ) :   1.0218 B(  3-C , 15-H ) :   0.9114
B(  3-C , 16-H ) :   0.9768 B(  4-C ,  5-O ) :   1.7696 B(  4-C ,  6-O ) :   1.0948
B(  6-O ,  7-C ) :   0.8279 B(  7-C , 17-H ) :   0.9567 B(  7-C , 18-H ) :   0.9602
B(  7-C , 19-H ) :   0.9569

Dispersion correction           -0.005063642
FINAL SINGLE POINT ENERGY      -386.234607007731

DIPOLE MOMENT
-------------

Method             : SCF
Type of density    : Electron Density
Multiplicity       :   1
Irrep              :   0
Energy             :  -386.2415628233642337 Eh
Relativity type    :
Basis              : AO
                                X                 Y                 Z
Electronic contribution:      8.636395606       2.311592080      -1.648408319
Nuclear contribution   :     -9.061705973      -3.338612840       2.119939487
                        -----------------------------------------
Total Dipole Moment    :     -0.425310366      -1.027020760       0.471531168
                        -----------------------------------------
Magnitude (a.u.)       :      1.207477616
Magnitude (Debye)      :      3.069164189

Rotational constants in cm-1:             0.154368             0.030156             0.027472
Rotational constants in MHz :          4627.825369           904.044808           823.604652

                             ****ORCA TERMINATED NORMALLY****
TOTAL RUN TIME: 0 days 0 hours 0 minutes 32 seconds 923 msec
