                         Program Version 6.0.0  -   RELEASE  -
|  1> ! pbe def2-sv(p) def2/J RI DEFGRID1 loosescf d4 GCP(DFT/SV(P)) printgap
|  2> %output
|  3>     printlevel normal
|  4> end
|  5> * xyz 0 1
|  6> C 3.1399342385 -0.7599432202 0.1260120453
|  7> C 1.9559492607 0.1302996115 0.486029034
|  8> C 1.0104475171 0.306187995 -0.70103807
|  9> C -0.1366502556 1.2807638207 -0.429175283
| 10> C -1.153467523 0.7735602231 0.5783808243
| 11> Cl -2.0078568881 -0.687743228 -0.0366458699
| 12> H 2.7950276485 -1.7442426036 -0.1832782648
| 13> H 3.8018357414 -0.8808358599 0.9800102281
| 14> H 3.7098777397 -0.325389545 -0.6922186729
| 15> H 1.421151375 -0.3168320826 1.3254884592
| 16> H 2.3221231874 1.1088977774 0.8040632098
| 17> H 0.5977046463 -0.6645237252 -0.9834495953
| 18> H 1.5839823858 0.6800222743 -1.551643395
| 19> H -0.6495113961 1.4983849275 -1.3676165987
| 20> H 0.2677023023 2.2170409789 -0.0388498075
| 21> H -0.6884491301 0.4779981159 1.5159332798
| 22> H -1.9289680069 1.5144166894 0.7630872273
| 23> *
| 24>
| 25>                          ****END OF INPUT****

CARTESIAN COORDINATES (ANGSTROEM)
---------------------------------
  C      3.139934   -0.759943    0.126012
  C      1.955949    0.130300    0.486029
  C      1.010448    0.306188   -0.701038
  C     -0.136650    1.280764   -0.429175
  C     -1.153468    0.773560    0.578381
  Cl    -2.007857   -0.687743   -0.036646
  H      2.795028   -1.744243   -0.183278
  H      3.801836   -0.880836    0.980010
  H      3.709878   -0.325390   -0.692219
  H      1.421151   -0.316832    1.325488
  H      2.322123    1.108898    0.804063
  H      0.597705   -0.664524   -0.983450
  H      1.583982    0.680022   -1.551643
  H     -0.649511    1.498385   -1.367617
  H      0.267702    2.217041   -0.038850
  H     -0.688449    0.477998    1.515933
  H     -1.928968    1.514417    0.763087

 Total Charge           Charge          ....    0
 Multiplicity           Mult            ....    1
 Number of Electrons    NEL             ....   58
 Basis Dimension        Dim             ....  110

ORBITAL ENERGIES
----------------

  NO   OCC          E(Eh)            E(eV)
   0   2.0000    -100.616068     -2737.9024
   1   2.0000      -9.938804      -270.4486
   2   2.0000      -9.895274      -269.2641
   3   2.0000      -9.885481      -268.9976
   4   2.0000      -9.883449      -268.9423
   5   2.0000      -9.873797      -268.6797
   6   2.0000      -9.151687      -249.0301
   7   2.0000      -6.983174      -190.0218
   8   2.0000      -6.971476      -189.7035
   9   2.0000      -6.971278      -189.6981
  10   2.0000      -0.775657       -21.1067
  11   2.0000      -0.718564       -19.5531
  12   2.0000      -0.666509       -18.1366
  13   2.0000      -0.600219       -16.3328
  14   2.0000      -0.545383       -14.8406
  15   2.0000      -0.505537       -13.7564
  16   2.0000      -0.433541       -11.7973
  17   2.0000      -0.422734       -11.5032
  18   2.0000      -0.398078       -10.8323
  19   2.0000      -0.380727       -10.3601
  20   2.0000      -0.358564        -9.7570
  21   2.0000      -0.352423        -9.5899
  22   2.0000      -0.327226        -8.9043
  23   2.0000      -0.315138        -8.5754
  24   2.0000      -0.294297        -8.0082
  25   2.0000      -0.288315        -7.8454
  26   2.0000      -0.281926        -7.6716
  27   2.0000      -0.244510        -6.6534
  28   2.0000      -0.242260        -6.5922
  29   0.0000       0.013187         0.3588
  30   0.0000       0.034598         0.9415
  31   0.0000       0.056811         1.5459
  32   0.0000       0.059058         1.6071
  33   0.0000       0.077397         2.1061

MULLIKEN ATOMIC CHARGES
-----------------------
   0 C :   -0.259435
   1 C :   -0.214831
   2 C :   -0.179627
   3 C :   -0.127884
   4 C :   -0.182349
   5 Cl:   -0.156764
   6 H :    0.101229
   7 H :    0.101972
   8 H :    0.097540
   9 H :    0.094663
  10 H :    0.081693
  11 H :    0.094286
  12 H :    0.084368
  13 H :    0.097838
  14 H :    0.089403
  15 H :    0.141257
  16 H :    0.136639
Sum of atomic charges:    0.0000000

LOEWDIN ATOMIC CHARGES
----------------------
   0 C :   -0.338349
   1 C :   -0.237110
   2 C :   -0.234465
   3 C :   -0.246858
   4 C :   -0.270011
   5 Cl:    0.020206
   6 H :    0.119103
   7 H :    0.118589
   8 H :    0.116534
   9 H :    0.114412
  10 H :    0.112475
  11 H :    0.114555
  12 H :    0.117029
  13 H :    0.122586
  14 H :    0.123569
  15 H :    0.122478
  16 H :    0.125257

  Mayer bond orders larger than 0.100000
B(  0-C ,  1-C ) :   1.1581 B(  0-C ,  6-H ) :   0.9542 B(  0-C ,  7-H ) :   0.9531
B(  0-C ,  8-H ) :   0.9548 B(  1-C ,  2-C ) :   1.1271 B(  1-C ,  9-H ) :   0.9216
B(  1-C , 10-H ) :   0.9271 B(  2-C ,  3-C ) :   1.1185 B(  2-C , 11-H ) :   0.9149
B(  2-C , 12-H ) :   0.9227 B(  3-C ,  4-C ) :   1.1040 B(  3-C , 13-H ) :   0.9178
B(  3-C , 14-H ) :   0.9040 B(  4-C ,  5-Cl) :   1.0269 B(  4-C , 15-H ) :   0.9221
B(  4-C , 16-H ) :   0.9301

Dispersion correction           -0.013131260
FINAL SINGLE POINT ENERGY      -656.513200648130

DIPOLE MOMENT
-------------

Method             : SCF
Type of density    : Electron Density
Multiplicity       :   1
Irrep              :   0
Energy             :  -656.5708291520601279 Eh
Relativity type    :
Basis              : AO
                                X                 Y                 Z
Electronic contribution:    -14.720517695      -3.712930503      -0.394078658
Nuclear contribution   :     15.109246397       4.267603827       0.585373826
                        -----------------------------------------
Total Dipole Moment    :      0.388728702       0.554673324       0.191295168
                        -----------------------------------------
Magnitude (a.u.)       :      0.703822664
Magnitude (Debye)      :      1.788975039

Rotational constants in cm-1:             0.177200             0.040703             0.037014
Rotational constants in MHz :          5312.313144          1220.235295          1109.645536

                             ****ORCA TERMINATED NORMALLY****
TOTAL RUN TIME: 0 days 0 hours 0 minutes 7 seconds 190 msec
