                         Program Version 6.0.0  -   RELEASE  -
|  1> ! pbe def2-sv(p) def2/J RI DEFGRID1 loosescf d4 GCP(DFT/SV(P)) printgap
|  2> %output
|  3>     printlevel normal
|  4> end
|  5> * xyz 0 1
|  6> C 1.5535727152 -1.7051297119 0.2493397227
|  7> O 0.2947681656 -1.0544040201 0.3798818491
|  8> C 0.0237019106 -0.1427796531 -0.6287425262
|  9> O 0.8494348285 0.9811999381 -0.5637975409
| 10> C 0.6720954125 1.8210686772 0.5794263529
| 11> O -1.3227549989 0.183182566 -0.6349362646
| 12> C -2.0866476808 -0.0787690557 0.547816123
| 13> H 1.5701556873 -2.3124247606 -0.6593629035
| 14> H 1.6436237527 -2.333474944 1.1305339411
| 15> H 2.363340119 -0.9733942192 0.2143143198
| 16> H 0.261188678 -0.5657178639 -1.6241794476
| 17> H 0.7477020717 1.2364801003 1.4991304008
| 18> H -0.2927512232 2.3290903861 0.5288140364
| 19> H 1.4799367897 2.545143985 0.5249311455
| 20> H -3.0684703667 0.3282984698 0.3230373855
| 21> H -1.6601595999 0.4115915039 1.4225166161
| 22> H -2.149371236 -1.1528544178 0.7268184149
| 23> *
| 24>
| 25>                          ****END OF INPUT****

CARTESIAN COORDINATES (ANGSTROEM)
---------------------------------
  C      1.553573   -1.705130    0.249340
  O      0.294768   -1.054404    0.379882
  C      0.023702   -0.142780   -0.628743
  O      0.849435    0.981200   -0.563798
  C      0.672095    1.821069    0.579426
  O     -1.322755    0.183183   -0.634936
  C     -2.086648   -0.078769    0.547816
  H      1.570156   -2.312425   -0.659363
  H      1.643624   -2.333475    1.130534
  H      2.363340   -0.973394    0.214314
  H      0.261189   -0.565718   -1.624179
  H      0.747702    1.236480    1.499130
  H     -0.292751    2.329090    0.528814
  H      1.479937    2.545144    0.524931
  H     -3.068470    0.328298    0.323037
  H     -1.660160    0.411592    1.422517
  H     -2.149371   -1.152854    0.726818

 Total Charge           Charge          ....    0
 Multiplicity           Mult            ....    1
 Number of Electrons    NEL             ....   58
 Basis Dimension        Dim             ....  118

ORBITAL ENERGIES
----------------

  NO   OCC          E(Eh)            E(eV)
   0   2.0000     -18.768850      -510.7264
   1   2.0000     -18.757854      -510.4272
   2   2.0000     -18.753455      -510.3075
   3   2.0000     -10.019027      -272.6316
   4   2.0000      -9.933498      -270.3042
   5   2.0000      -9.924451      -270.0580
   6   2.0000      -9.923221      -270.0246
   7   2.0000      -1.000075       -27.2134
   8   2.0000      -0.916111       -24.9286
   9   2.0000      -0.907730       -24.7006
  10   2.0000      -0.669711       -18.2238
  11   2.0000      -0.627849       -17.0847
  12   2.0000      -0.612476       -16.6663
  13   2.0000      -0.523094       -14.2341
  14   2.0000      -0.472513       -12.8577
  15   2.0000      -0.466662       -12.6985
  16   2.0000      -0.462287       -12.5795
  17   2.0000      -0.403852       -10.9894
  18   2.0000      -0.395204       -10.7540
  19   2.0000      -0.382070       -10.3967
  20   2.0000      -0.376778       -10.2527
  21   2.0000      -0.372248       -10.1294
  22   2.0000      -0.350086        -9.5263
  23   2.0000      -0.311324        -8.4715
  24   2.0000      -0.279937        -7.6175
  25   2.0000      -0.267893        -7.2897
  26   2.0000      -0.238393        -6.4870
  27   2.0000      -0.225058        -6.1241
  28   2.0000      -0.211407        -5.7527
  29   0.0000       0.039433         1.0730
  30   0.0000       0.062011         1.6874
  31   0.0000       0.078681         2.1410
  32   0.0000       0.083902         2.2831
  33   0.0000       0.093255         2.5376

MULLIKEN ATOMIC CHARGES
-----------------------
   0 C :   -0.105437
   1 O :   -0.329052
   2 C :    0.294685
   3 O :   -0.319018
   4 C :   -0.117763
   5 O :   -0.326112
   6 C :   -0.098249
   7 H :    0.096925
   8 H :    0.118361
   9 H :    0.106530
  10 H :    0.048047
  11 H :    0.098242
  12 H :    0.107006
  13 H :    0.115418
  14 H :    0.112980
  15 H :    0.093696
  16 H :    0.103743
Sum of atomic charges:   -0.0000000

LOEWDIN ATOMIC CHARGES
----------------------
   0 C :   -0.204096
   1 O :   -0.160460
   2 C :    0.051105
   3 O :   -0.170447
   4 C :   -0.214708
   5 O :   -0.160389
   6 C :   -0.205597
   7 H :    0.105532
   8 H :    0.118313
   9 H :    0.106789
  10 H :    0.085716
  11 H :    0.101432
  12 H :    0.106467
  13 H :    0.117618
  14 H :    0.116131
  15 H :    0.100407
  16 H :    0.106188

  Mayer bond orders larger than 0.100000
B(  0-C ,  1-O ) :   0.9826 B(  0-C ,  7-H ) :   0.9465 B(  0-C ,  8-H ) :   0.9636
B(  0-C ,  9-H ) :   0.9429 B(  1-O ,  2-C ) :   1.0401 B(  2-C ,  3-O ) :   1.1009
B(  2-C ,  5-O ) :   1.0955 B(  2-C , 10-H ) :   0.9007 B(  3-O ,  4-C ) :   0.9778
B(  4-C , 11-H ) :   0.9367 B(  4-C , 12-H ) :   0.9463 B(  4-C , 13-H ) :   0.9639
B(  5-O ,  6-C ) :   0.9737 B(  6-C , 14-H ) :   0.9618 B(  6-C , 15-H ) :   0.9438
B(  6-C , 16-H ) :   0.9528

Dispersion correction           -0.012416759
FINAL SINGLE POINT ENERGY      -383.229230086124

DIPOLE MOMENT
-------------

Method             : SCF
Type of density    : Electron Density
Multiplicity       :   1
Irrep              :   0
Energy             :  -383.3096732456382938 Eh
Relativity type    :
Basis              : AO
                                X                 Y                 Z
Electronic contribution:     -0.631727506       0.200146990      -3.220692743
Nuclear contribution   :      0.837195576      -0.455502752       3.821732864
                        -----------------------------------------
Total Dipole Moment    :      0.205468069      -0.255355762       0.601040121
                        -----------------------------------------
Magnitude (a.u.)       :      0.684596903
Magnitude (Debye)      :      1.740107039

Rotational constants in cm-1:             0.102350             0.082918             0.057200
Rotational constants in MHz :          3068.384632          2485.805243          1714.827694

                             ****ORCA TERMINATED NORMALLY****
TOTAL RUN TIME: 0 days 0 hours 0 minutes 9 seconds 556 msec
