                         Program Version 6.0.0  -   RELEASE  -
|  1> ! pbe def2-sv(p) def2/J RI DEFGRID1 loosescf d4 GCP(DFT/SV(P)) printgap
|  2> %output
|  3>     printlevel normal
|  4> end
|  5> * xyz 0 1
|  6> C -3.6818216354 -0.6719594531 0.3034900399
|  7> C -2.4756572527 0.141687776 -0.1473716011
|  8> C -1.1669961619 -0.5280493296 0.2621681929
|  9> C 0.0404516819 0.2517222431 -0.1855315724
| 10> O 0.0184183247 1.2672813817 -0.8493027284
| 11> O 1.165952181 -0.3125252695 0.2370419774
| 12> C 2.4066368124 0.3213799687 -0.11950909
| 13> C 3.5389872435 -0.4767807133 0.4966176916
| 14> H -3.661986357 -1.6626573207 -0.1435592884
| 15> H -3.6849061874 -0.7811603632 1.3850691806
| 16> H -4.6021003302 -0.1779494505 0.0047782411
| 17> H -2.5153349338 1.1419254272 0.2877874299
| 18> H -2.4888217591 0.2622391781 -1.2320922102
| 19> H -1.0936225913 -1.5275711991 -0.1715287671
| 20> H -1.1090370312 -0.6413650548 1.3462391959
| 21> H 2.4773306069 0.3522475247 -1.2117774288
| 22> H 2.3864620681 1.3522819995 0.2490986213
| 23> H 4.4859176729 -0.0140929331 0.2391957832
| 24> H 3.4322668439 -0.5001568255 1.5769888394
| 25> H 3.5226529831 -1.4955247397 0.1211668381
| 26> *
| 27>
| 28>                          ****END OF INPUT****

CARTESIAN COORDINATES (ANGSTROEM)
---------------------------------
  C     -3.681822   -0.671959    0.303490
  C     -2.475657    0.141688   -0.147372
  C     -1.166996   -0.528049    0.262168
  C      0.040452    0.251722   -0.185532
  O      0.018418    1.267281   -0.849303
  O      1.165952   -0.312525    0.237042
  C      2.406637    0.321380   -0.119509
  C      3.538987   -0.476781    0.496618
  H     -3.661986   -1.662657   -0.143559
  H     -3.684906   -0.781160    1.385069
  H     -4.602100   -0.177949    0.004778
  H     -2.515335    1.141925    0.287787
  H     -2.488822    0.262239   -1.232092
  H     -1.093623   -1.527571   -0.171529
  H     -1.109037   -0.641365    1.346239
  H      2.477331    0.352248   -1.211777
  H      2.386462    1.352282    0.249099
  H      4.485918   -0.014093    0.239196
  H      3.432267   -0.500157    1.576989
  H      3.522653   -1.495525    0.121167

 Total Charge           Charge          ....    0
 Multiplicity           Mult            ....    1
 Number of Electrons    NEL             ....   64
 Basis Dimension        Dim             ....  136

ORBITAL ENERGIES
----------------

  NO   OCC          E(Eh)            E(eV)
   0   2.0000     -18.794821      -511.4331
   1   2.0000     -18.731453      -509.7087
   2   2.0000     -10.003766      -272.2163
   3   2.0000      -9.946197      -270.6498
   4   2.0000      -9.897590      -269.3271
   5   2.0000      -9.888961      -269.0923
   6   2.0000      -9.885558      -268.9997
   7   2.0000      -9.876127      -268.7431
   8   2.0000      -1.002676       -27.2842
   9   2.0000      -0.907281       -24.6884
  10   2.0000      -0.725457       -19.7407
  11   2.0000      -0.699886       -19.0449
  12   2.0000      -0.638953       -17.3868
  13   2.0000      -0.579678       -15.7738
  14   2.0000      -0.528241       -14.3742
  15   2.0000      -0.501417       -13.6443
  16   2.0000      -0.449928       -12.2432
  17   2.0000      -0.442397       -12.0382
  18   2.0000      -0.422851       -11.5064
  19   2.0000      -0.403370       -10.9762
  20   2.0000      -0.378150       -10.2900
  21   2.0000      -0.371168       -10.1000
  22   2.0000      -0.359467        -9.7816
  23   2.0000      -0.353376        -9.6159
  24   2.0000      -0.341548        -9.2940
  25   2.0000      -0.315045        -8.5728
  26   2.0000      -0.312003        -8.4900
  27   2.0000      -0.300378        -8.1737
  28   2.0000      -0.292899        -7.9702
  29   2.0000      -0.291357        -7.9282
  30   2.0000      -0.254779        -6.9329
  31   2.0000      -0.216599        -5.8940
  32   0.0000      -0.016756        -0.4559
  33   0.0000       0.035534         0.9669
  34   0.0000       0.048282         1.3138
  35   0.0000       0.080483         2.1901
  36   0.0000       0.081033         2.2050

MULLIKEN ATOMIC CHARGES
-----------------------
   0 C :   -0.252243
   1 C :   -0.197508
   2 C :   -0.181069
   3 C :    0.132267
   4 O :   -0.213175
   5 O :   -0.244662
   6 C :   -0.027695
   7 C :   -0.270070
   8 H :    0.095330
   9 H :    0.095237
  10 H :    0.105299
  11 H :    0.097672
  12 H :    0.099521
  13 H :    0.108742
  14 H :    0.107100
  15 H :    0.103445
  16 H :    0.104094
  17 H :    0.110291
  18 H :    0.113732
  19 H :    0.113694
Sum of atomic charges:    0.0000000

LOEWDIN ATOMIC CHARGES
----------------------
   0 C :   -0.339568
   1 C :   -0.230337
   2 C :   -0.251602
   3 C :    0.036751
   4 O :   -0.165924
   5 O :   -0.076679
   6 C :   -0.107683
   7 C :   -0.350669
   8 H :    0.116340
   9 H :    0.116234
  10 H :    0.120974
  11 H :    0.121529
  12 H :    0.122259
  13 H :    0.138665
  14 H :    0.137143
  15 H :    0.115106
  16 H :    0.115353
  17 H :    0.129904
  18 H :    0.126114
  19 H :    0.126091

  Mayer bond orders larger than 0.100000
B(  0-C ,  1-C ) :   1.1535 B(  0-C ,  8-H ) :   0.9533 B(  0-C ,  9-H ) :   0.9532
B(  0-C , 10-H ) :   0.9541 B(  1-C ,  2-C ) :   1.1334 B(  1-C , 11-H ) :   0.9285
B(  1-C , 12-H ) :   0.9263 B(  2-C ,  3-C ) :   1.0255 B(  2-C , 13-H ) :   0.8963
B(  2-C , 14-H ) :   0.8991 B(  3-C ,  4-O ) :   2.0446 B(  3-C ,  5-O ) :   1.2114
B(  5-O ,  6-C ) :   0.9136 B(  6-C ,  7-C ) :   1.1501 B(  6-C , 15-H ) :   0.9329
B(  6-C , 16-H ) :   0.9320 B(  7-C , 17-H ) :   0.9445 B(  7-C , 18-H ) :   0.9501
B(  7-C , 19-H ) :   0.9498

Dispersion correction           -0.014189805
FINAL SINGLE POINT ENERGY      -385.458571379343

DIPOLE MOMENT
-------------

Method             : SCF
Type of density    : Electron Density
Multiplicity       :   1
Irrep              :   0
Energy             :  -385.5337957925776209 Eh
Relativity type    :
Basis              : AO
                                X                 Y                 Z
Electronic contribution:      3.013460934       2.927094243      -1.936194432
Nuclear contribution   :     -2.657319161      -3.449351297       2.290711651
                        -----------------------------------------
Total Dipole Moment    :      0.356141773      -0.522257055       0.354517219
                        -----------------------------------------
Magnitude (a.u.)       :      0.724756409
Magnitude (Debye)      :      1.842184390

Rotational constants in cm-1:             0.211331             0.027029             0.024514
Rotational constants in MHz :          6335.538638           810.295367           734.922924

                             ****ORCA TERMINATED NORMALLY****
TOTAL RUN TIME: 0 days 0 hours 0 minutes 10 seconds 458 msec
