                         Program Version 6.0.0  -   RELEASE  -
|  1> ! pbe def2-sv(p) def2/J RI DEFGRID1 loosescf d4 GCP(DFT/SV(P)) printgap
|  2> %output
|  3>     printlevel normal
|  4> end
|  5> * xyz 0 1
|  6> C -3.8817709418 0.3801165757 0.0771281948
|  7> C -2.6838114489 -0.5469482436 0.243974812
|  8> C -1.3707013564 0.1792713002 -0.0362889304
|  9> C -0.1620924402 -0.7409122922 0.1516617106
| 10> C 1.1155623625 -0.0502426295 -0.2462947745
| 11> O 1.2698879135 0.5997363615 -1.2590323031
| 12> O 2.0733147309 -0.2475868747 0.6524921419
| 13> C 3.3643144758 0.3266470241 0.4231160698
| 14> H -3.9240897373 0.7678344595 -0.9379375926
| 15> H -4.8070290124 -0.1520298006 0.2819341427
| 16> H -3.8099706537 1.2222718853 0.7614012161
| 17> H -2.6675945923 -0.9393406352 1.2625547828
| 18> H -2.7814802712 -1.3929500689 -0.4388230765
| 19> H -1.2785410746 1.0365716042 0.633971931
| 20> H -1.3653929556 0.5589422029 -1.0600967737
| 21> H -0.2737823139 -1.615323216 -0.4935977346
| 22> H -0.072245721 -1.0760457461 1.1842059329
| 23> H 3.5024951243 0.5160317679 -0.6419301318
| 24> H 4.0916142491 -0.3914856473 0.7918584676
| 25> H 3.4371721245 1.2627366416 0.9761010612
| 26> *
| 27>
| 28>                          ****END OF INPUT****

CARTESIAN COORDINATES (ANGSTROEM)
---------------------------------
  C     -3.881771    0.380117    0.077128
  C     -2.683811   -0.546948    0.243975
  C     -1.370701    0.179271   -0.036289
  C     -0.162092   -0.740912    0.151662
  C      1.115562   -0.050243   -0.246295
  O      1.269888    0.599736   -1.259032
  O      2.073315   -0.247587    0.652492
  C      3.364314    0.326647    0.423116
  H     -3.924090    0.767834   -0.937938
  H     -4.807029   -0.152030    0.281934
  H     -3.809971    1.222272    0.761401
  H     -2.667595   -0.939341    1.262555
  H     -2.781480   -1.392950   -0.438823
  H     -1.278541    1.036572    0.633972
  H     -1.365393    0.558942   -1.060097
  H     -0.273782   -1.615323   -0.493598
  H     -0.072246   -1.076046    1.184206
  H      3.502495    0.516032   -0.641930
  H      4.091614   -0.391486    0.791858
  H      3.437172    1.262737    0.976101

 Total Charge           Charge          ....    0
 Multiplicity           Mult            ....    1
 Number of Electrons    NEL             ....   64
 Basis Dimension        Dim             ....  136

ORBITAL ENERGIES
----------------

  NO   OCC          E(Eh)            E(eV)
   0   2.0000     -18.799001      -511.5468
   1   2.0000     -18.730890      -509.6934
   2   2.0000     -10.004560      -272.2379
   3   2.0000      -9.939916      -270.4789
   4   2.0000      -9.896576      -269.2995
   5   2.0000      -9.887852      -269.0621
   6   2.0000      -9.886068      -269.0136
   7   2.0000      -9.875024      -268.7131
   8   2.0000      -1.003888       -27.3172
   9   2.0000      -0.908182       -24.7129
  10   2.0000      -0.729800       -19.8589
  11   2.0000      -0.686780       -18.6882
  12   2.0000      -0.646824       -17.6010
  13   2.0000      -0.576958       -15.6998
  14   2.0000      -0.521161       -14.1815
  15   2.0000      -0.502851       -13.6833
  16   2.0000      -0.444483       -12.0950
  17   2.0000      -0.440003       -11.9731
  18   2.0000      -0.426775       -11.6131
  19   2.0000      -0.409957       -11.1555
  20   2.0000      -0.388888       -10.5822
  21   2.0000      -0.373632       -10.1670
  22   2.0000      -0.370274       -10.0757
  23   2.0000      -0.348790        -9.4911
  24   2.0000      -0.334957        -9.1147
  25   2.0000      -0.312512        -8.5039
  26   2.0000      -0.301827        -8.2131
  27   2.0000      -0.296635        -8.0719
  28   2.0000      -0.287330        -7.8186
  29   2.0000      -0.285784        -7.7766
  30   2.0000      -0.255647        -6.9565
  31   2.0000      -0.218477        -5.9451
  32   0.0000      -0.018150        -0.4939
  33   0.0000       0.039657         1.0791
  34   0.0000       0.056002         1.5239
  35   0.0000       0.066735         1.8160
  36   0.0000       0.071477         1.9450

MULLIKEN ATOMIC CHARGES
-----------------------
   0 C :   -0.256655
   1 C :   -0.172475
   2 C :   -0.221171
   3 C :   -0.123411
   4 C :    0.109898
   5 O :   -0.206812
   6 O :   -0.237307
   7 C :   -0.125904
   8 H :    0.099968
   9 H :    0.102087
  10 H :    0.097678
  11 H :    0.082773
  12 H :    0.083784
  13 H :    0.087722
  14 H :    0.104962
  15 H :    0.107835
  16 H :    0.094017
  17 H :    0.130318
  18 H :    0.121968
  19 H :    0.120725
Sum of atomic charges:    0.0000000

LOEWDIN ATOMIC CHARGES
----------------------
   0 C :   -0.338949
   1 C :   -0.233773
   2 C :   -0.221284
   3 C :   -0.245437
   4 C :    0.036646
   5 O :   -0.171595
   6 O :   -0.074336
   7 C :   -0.208044
   8 H :    0.118409
   9 H :    0.118940
  10 H :    0.117236
  11 H :    0.113644
  12 H :    0.114709
  13 H :    0.117263
  14 H :    0.123658
  15 H :    0.141549
  16 H :    0.127857
  17 H :    0.123206
  18 H :    0.120655
  19 H :    0.119646

  Mayer bond orders larger than 0.100000
B(  0-C ,  1-C ) :   1.1608 B(  0-C ,  8-H ) :   0.9541 B(  0-C ,  9-H ) :   0.9528
B(  0-C , 10-H ) :   0.9545 B(  1-C ,  2-C ) :   1.1359 B(  1-C , 11-H ) :   0.9238
B(  1-C , 12-H ) :   0.9252 B(  2-C ,  3-C ) :   1.1256 B(  2-C , 13-H ) :   0.9288
B(  2-C , 14-H ) :   0.9148 B(  3-C ,  4-C ) :   1.0134 B(  3-C , 15-H ) :   0.8850
B(  3-C , 16-H ) :   0.9082 B(  4-C ,  5-O ) :   2.0616 B(  4-C ,  6-O ) :   1.2243
B(  6-O ,  7-C ) :   0.9365 B(  7-C , 17-H ) :   0.9335 B(  7-C , 18-H ) :   0.9611
B(  7-C , 19-H ) :   0.9601

Dispersion correction           -0.014387843
FINAL SINGLE POINT ENERGY      -385.452698275329

DIPOLE MOMENT
-------------

Method             : SCF
Type of density    : Electron Density
Multiplicity       :   1
Irrep              :   0
Energy             :  -385.5279688825396534 Eh
Relativity type    :
Basis              : AO
                                X                 Y                 Z
Electronic contribution:      9.461682630      -0.091010206      -1.579814321
Nuclear contribution   :     -9.284101348      -0.185025859       2.167217210
                        -----------------------------------------
Total Dipole Moment    :      0.177581282      -0.276036065       0.587402890
                        -----------------------------------------
Magnitude (a.u.)       :      0.672884221
Magnitude (Debye)      :      1.710335768

Rotational constants in cm-1:             0.219647             0.025128             0.023915
Rotational constants in MHz :          6584.863387           753.305569           716.964247

                             ****ORCA TERMINATED NORMALLY****
TOTAL RUN TIME: 0 days 0 hours 0 minutes 10 seconds 430 msec
