                         Program Version 6.0.0  -   RELEASE  -
|  1> ! pbe def2-sv(p) def2/J RI DEFGRID1 loosescf d4 GCP(DFT/SV(P)) printgap
|  2> %output
|  3>     printlevel normal
|  4> end
|  5> * xyz 0 1
|  6> C -1.9905021197 0.6619504572 -0.54929544
|  7> C -1.4903360222 -0.5843576526 0.1708507452
|  8> C -0.2171528101 -0.3015349017 0.9746954133
|  9> N 0.8884390887 -0.0187653139 0.0662518439
| 10> O 1.4276976441 1.0673165891 0.1374754717
| 11> O 1.2114219258 -0.8815272343 -0.7243882918
| 12> H -2.9044958469 0.4391125516 -1.091994991
| 13> H -2.197592814 1.4593629605 0.160078455
| 14> H -1.2531560799 1.0234075593 -1.2640570923
| 15> H -1.2797932378 -1.3751463842 -0.5512018042
| 16> H -2.253721463 -0.9420492442 0.8604526535
| 17> H -0.3380460916 0.5638876275 1.6268732888
| 18> H 0.0547268862 -1.1883872959 1.5504769764
| 19> *
| 20>
| 21>                          ****END OF INPUT****

CARTESIAN COORDINATES (ANGSTROEM)
---------------------------------
  C     -1.990502    0.661950   -0.549295
  C     -1.490336   -0.584358    0.170851
  C     -0.217153   -0.301535    0.974695
  N      0.888439   -0.018765    0.066252
  O      1.427698    1.067317    0.137475
  O      1.211422   -0.881527   -0.724388
  H     -2.904496    0.439113   -1.091995
  H     -2.197593    1.459363    0.160078
  H     -1.253156    1.023408   -1.264057
  H     -1.279793   -1.375146   -0.551202
  H     -2.253721   -0.942049    0.860453
  H     -0.338046    0.563888    1.626873
  H      0.054727   -1.188387    1.550477

 Total Charge           Charge          ....    0
 Multiplicity           Mult            ....    1
 Number of Electrons    NEL             ....   48
 Basis Dimension        Dim             ....   98

ORBITAL ENERGIES
----------------

  NO   OCC          E(Eh)            E(eV)
   0   2.0000     -18.781865      -511.0805
   1   2.0000     -18.780759      -511.0504
   2   2.0000     -14.205765      -386.5585
   3   2.0000      -9.948425      -270.7104
   4   2.0000      -9.914335      -269.7828
   5   2.0000      -9.892848      -269.1981
   6   2.0000      -1.133670       -30.8487
   7   2.0000      -0.962783       -26.1987
   8   2.0000      -0.770247       -20.9595
   9   2.0000      -0.682954       -18.5841
  10   2.0000      -0.583663       -15.8823
  11   2.0000      -0.524351       -14.2683
  12   2.0000      -0.498673       -13.5696
  13   2.0000      -0.477266       -12.9871
  14   2.0000      -0.452834       -12.3222
  15   2.0000      -0.420664       -11.4469
  16   2.0000      -0.404111       -10.9964
  17   2.0000      -0.383536       -10.4366
  18   2.0000      -0.333077        -9.0635
  19   2.0000      -0.326636        -8.8882
  20   2.0000      -0.321061        -8.7365
  21   2.0000      -0.273970        -7.4551
  22   2.0000      -0.254483        -6.9248
  23   2.0000      -0.232845        -6.3360
  24   0.0000      -0.096273        -2.6197
  25   0.0000       0.029704         0.8083
  26   0.0000       0.064264         1.7487
  27   0.0000       0.068999         1.8776
  28   0.0000       0.089929         2.4471

MULLIKEN ATOMIC CHARGES
-----------------------
   0 C :   -0.293549
   1 C :   -0.226250
   2 C :   -0.030426
   3 N :    0.167889
   4 O :   -0.216612
   5 O :   -0.217528
   6 H :    0.117431
   7 H :    0.107510
   8 H :    0.124274
   9 H :    0.122185
  10 H :    0.108119
  11 H :    0.107720
  12 H :    0.129236
Sum of atomic charges:    0.0000000

LOEWDIN ATOMIC CHARGES
----------------------
   0 C :   -0.344428
   1 C :   -0.240229
   2 C :   -0.181816
   3 N :    0.239475
   4 O :   -0.186835
   5 O :   -0.191525
   6 H :    0.127151
   7 H :    0.122021
   8 H :    0.125211
   9 H :    0.130469
  10 H :    0.128695
  11 H :    0.130526
  12 H :    0.141286

  Mayer bond orders larger than 0.100000
B(  0-C ,  1-C ) :   1.1455 B(  0-C ,  6-H ) :   0.9513 B(  0-C ,  7-H ) :   0.9537
B(  0-C ,  8-H ) :   0.9524 B(  1-C ,  2-C ) :   1.1081 B(  1-C ,  9-H ) :   0.9144
B(  1-C , 10-H ) :   0.9216 B(  2-C ,  3-N ) :   0.9071 B(  2-C , 11-H ) :   0.9153
B(  2-C , 12-H ) :   0.9085 B(  3-N ,  4-O ) :   1.5502 B(  3-N ,  5-O ) :   1.5331
B(  4-O ,  5-O ) :   0.3096

Dispersion correction           -0.008870303
FINAL SINGLE POINT ENERGY      -322.969571959090

DIPOLE MOMENT
-------------

Method             : SCF
Type of density    : Electron Density
Multiplicity       :   1
Irrep              :   0
Energy             :  -323.0203862779852670 Eh
Relativity type    :
Basis              : AO
                                X                 Y                 Z
Electronic contribution:      8.382215860      -0.253819248      -0.500187958
Nuclear contribution   :     -9.499104552      -0.015932545       1.202484663
                        -----------------------------------------
Total Dipole Moment    :     -1.116888692      -0.269751793       0.702296705
                        -----------------------------------------
Magnitude (a.u.)       :      1.346635452
Magnitude (Debye)      :      3.422875299

Rotational constants in cm-1:             0.205114             0.085616             0.079168
Rotational constants in MHz :          6149.160018          2566.701296          2373.382323

                             ****ORCA TERMINATED NORMALLY****
TOTAL RUN TIME: 0 days 0 hours 0 minutes 9 seconds 829 msec
