                         Program Version 6.0.0  -   RELEASE  -
|  1> ! r2scan-3c def2/J RI DEFGRID2 scfconv6 printgap
|  2> %output
|  3>     printlevel normal
|  4> end
|  5> * xyz 0 1
|  6> C -3.6504661546 -0.4773643771 0.3618265792
|  7> C -2.3554673018 0.252393919 0.0297225542
|  8> C -1.1504601521 -0.680771373 0.1169837919
|  9> C 0.1307406995 0.0013474187 -0.2846498796
| 10> O 0.2075124699 1.0620881778 -0.8671124139
| 11> O 1.1896549922 -0.7240131711 0.0640404111
| 12> C 2.4980749255 -0.2196528978 -0.2539146473
| 13> C 2.9955697643 0.7361426132 0.819665407
| 14> H -3.6093630954 -0.8872725305 1.3678547383
| 15> H -4.4931721757 0.2056922516 0.3023621061
| 16> H -3.8186077062 -1.293098999 -0.3368025792
| 17> H -2.2118323546 1.0871051288 0.7183573954
| 18> H -2.4067834062 0.6696056966 -0.9775673096
| 19> H -1.285184612 -1.5331060153 -0.5535692112
| 20> H -1.0258746217 -1.0765579794 1.1256413282
| 21> H 3.1258603048 -1.1088891218 -0.316414895
| 22> H 2.4517613782 0.2832452082 -1.2246577669
| 23> H 2.3577854049 1.6164774938 0.8582685053
| 24> H 2.9848141138 0.2474732785 1.7901500586
| 25> H 4.0086894659 1.0453292132 0.584385931
| 26> *
| 27>
| 28>                          ****END OF INPUT****

CARTESIAN COORDINATES (ANGSTROEM)
---------------------------------
  C     -3.650466   -0.477364    0.361827
  C     -2.355467    0.252394    0.029723
  C     -1.150460   -0.680771    0.116984
  C      0.130741    0.001347   -0.284650
  O      0.207512    1.062088   -0.867112
  O      1.189655   -0.724013    0.064040
  C      2.498075   -0.219653   -0.253915
  C      2.995570    0.736143    0.819665
  H     -3.609363   -0.887273    1.367855
  H     -4.493172    0.205692    0.302362
  H     -3.818608   -1.293099   -0.336803
  H     -2.211832    1.087105    0.718357
  H     -2.406783    0.669606   -0.977567
  H     -1.285185   -1.533106   -0.553569
  H     -1.025875   -1.076558    1.125641
  H      3.125860   -1.108889   -0.316415
  H      2.451761    0.283245   -1.224658
  H      2.357785    1.616477    0.858269
  H      2.984814    0.247473    1.790150
  H      4.008689    1.045329    0.584386

 Total Charge           Charge          ....    0
 Multiplicity           Mult            ....    1
 Number of Electrons    NEL             ....   64
 Basis Dimension        Dim             ....  222

ORBITAL ENERGIES
----------------

  NO   OCC          E(Eh)            E(eV)
   0   2.0000     -18.994380      -516.8634
   1   2.0000     -18.928795      -515.0787
   2   2.0000     -10.151757      -276.2434
   3   2.0000     -10.090284      -274.5706
   4   2.0000     -10.041706      -273.2487
   5   2.0000     -10.028656      -272.8936
   6   2.0000     -10.027784      -272.8699
   7   2.0000     -10.019382      -272.6412
   8   2.0000      -1.069636       -29.1063
   9   2.0000      -0.975685       -26.5497
  10   2.0000      -0.770888       -20.9769
  11   2.0000      -0.739314       -20.1178
  12   2.0000      -0.680171       -18.5084
  13   2.0000      -0.621798       -16.9200
  14   2.0000      -0.562397       -15.3036
  15   2.0000      -0.517808       -14.0903
  16   2.0000      -0.473659       -12.8889
  17   2.0000      -0.456420       -12.4198
  18   2.0000      -0.445073       -12.1111
  19   2.0000      -0.418034       -11.3753
  20   2.0000      -0.411517       -11.1979
  21   2.0000      -0.388455       -10.5704
  22   2.0000      -0.375060       -10.2059
  23   2.0000      -0.365084        -9.9345
  24   2.0000      -0.350866        -9.5476
  25   2.0000      -0.337644        -9.1878
  26   2.0000      -0.321483        -8.7480
  27   2.0000      -0.312104        -8.4928
  28   2.0000      -0.305361        -8.3093
  29   2.0000      -0.301969        -8.2170
  30   2.0000      -0.270384        -7.3575
  31   2.0000      -0.236474        -6.4348
  32   0.0000      -0.012534        -0.3411
  33   0.0000       0.077914         2.1201
  34   0.0000       0.089938         2.4473
  35   0.0000       0.104423         2.8415
  36   0.0000       0.123671         3.3653

MULLIKEN ATOMIC CHARGES
-----------------------
   0 C :   -0.466449
   1 C :   -0.230982
   2 C :   -0.310034
   3 C :    0.382552
   4 O :   -0.432329
   5 O :   -0.177921
   6 C :   -0.137657
   7 C :   -0.470616
   8 H :    0.139550
   9 H :    0.150336
  10 H :    0.141634
  11 H :    0.142737
  12 H :    0.158197
  13 H :    0.163745
  14 H :    0.162046
  15 H :    0.147906
  16 H :    0.166024
  17 H :    0.173490
  18 H :    0.151244
  19 H :    0.146525
Sum of atomic charges:    0.0000000

LOEWDIN ATOMIC CHARGES
----------------------
   0 C :   -0.422090
   1 C :   -0.296787
   2 C :   -0.232098
   3 C :    0.364247
   4 O :   -0.437119
   5 O :   -0.596695
   6 C :    0.026487
   7 C :   -0.391046
   8 H :    0.149492
   9 H :    0.152597
  10 H :    0.149724
  11 H :    0.158866
  12 H :    0.165735
  13 H :    0.182491
  14 H :    0.180310
  15 H :    0.177449
  16 H :    0.187155
  17 H :    0.165581
  18 H :    0.156770
  19 H :    0.158930

  Mayer bond orders larger than 0.100000
B(  0-C ,  1-C ) :   0.8783 B(  0-C ,  8-H ) :   0.9798 B(  0-C ,  9-H ) :   0.9759
B(  0-C , 10-H ) :   0.9862 B(  1-C ,  2-C ) :   0.9593 B(  1-C , 11-H ) :   0.9632
B(  1-C , 12-H ) :   0.9642 B(  2-C ,  3-C ) :   0.9982 B(  2-C , 13-H ) :   0.9388
B(  2-C , 14-H ) :   0.9591 B(  3-C ,  4-O ) :   1.8317 B(  3-C ,  5-O ) :   1.0723
B(  5-O ,  6-C ) :   0.8178 B(  6-C ,  7-C ) :   0.9367 B(  6-C , 15-H ) :   0.9617
B(  6-C , 16-H ) :   0.9684 B(  7-C , 17-H ) :   0.9720 B(  7-C , 18-H ) :   0.9738
B(  7-C , 19-H ) :   0.9650

Dispersion correction           -0.004905455
FINAL SINGLE POINT ENERGY      -386.236888199081

DIPOLE MOMENT
-------------

Method             : SCF
Type of density    : Electron Density
Multiplicity       :   1
Irrep              :   0
Energy             :  -386.2436876780148509 Eh
Relativity type    :
Basis              : AO
                                X                 Y                 Z
Electronic contribution:      3.903896409       0.152465416      -2.759754617
Nuclear contribution   :     -3.658685396      -0.692979591       3.119700143
                        -----------------------------------------
Total Dipole Moment    :      0.245211013      -0.540514174       0.359945526
                        -----------------------------------------
Magnitude (a.u.)       :      0.694150413
Magnitude (Debye)      :      1.764390130

Rotational constants in cm-1:             0.195743             0.028478             0.027334
Rotational constants in MHz :          5868.223871           853.762593           819.459959

                             ****ORCA TERMINATED NORMALLY****
TOTAL RUN TIME: 0 days 0 hours 0 minutes 32 seconds 117 msec
