                         Program Version 6.0.0  -   RELEASE  -
|  1> ! r2scan-3c def2/J RI DEFGRID2 scfconv6 printgap
|  2> %output
|  3>     printlevel normal
|  4> end
|  5> %cpcm
|  6>     smd true
|  7>     smdsolvent "water"
|  8> end
|  9> * xyz 0 1
| 10> C -3.6504661546 -0.4773643771 0.3618265792
| 11> C -2.3554673018 0.252393919 0.0297225542
| 12> C -1.1504601521 -0.680771373 0.1169837919
| 13> C 0.1307406995 0.0013474187 -0.2846498796
| 14> O 0.2075124699 1.0620881778 -0.8671124139
| 15> O 1.1896549922 -0.7240131711 0.0640404111
| 16> C 2.4980749255 -0.2196528978 -0.2539146473
| 17> C 2.9955697643 0.7361426132 0.819665407
| 18> H -3.6093630954 -0.8872725305 1.3678547383
| 19> H -4.4931721757 0.2056922516 0.3023621061
| 20> H -3.8186077062 -1.293098999 -0.3368025792
| 21> H -2.2118323546 1.0871051288 0.7183573954
| 22> H -2.4067834062 0.6696056966 -0.9775673096
| 23> H -1.285184612 -1.5331060153 -0.5535692112
| 24> H -1.0258746217 -1.0765579794 1.1256413282
| 25> H 3.1258603048 -1.1088891218 -0.316414895
| 26> H 2.4517613782 0.2832452082 -1.2246577669
| 27> H 2.3577854049 1.6164774938 0.8582685053
| 28> H 2.9848141138 0.2474732785 1.7901500586
| 29> H 4.0086894659 1.0453292132 0.584385931
| 30> *
| 31>
| 32>                          ****END OF INPUT****

CARTESIAN COORDINATES (ANGSTROEM)
---------------------------------
  C     -3.650466   -0.477364    0.361827
  C     -2.355467    0.252394    0.029723
  C     -1.150460   -0.680771    0.116984
  C      0.130741    0.001347   -0.284650
  O      0.207512    1.062088   -0.867112
  O      1.189655   -0.724013    0.064040
  C      2.498075   -0.219653   -0.253915
  C      2.995570    0.736143    0.819665
  H     -3.609363   -0.887273    1.367855
  H     -4.493172    0.205692    0.302362
  H     -3.818608   -1.293099   -0.336803
  H     -2.211832    1.087105    0.718357
  H     -2.406783    0.669606   -0.977567
  H     -1.285185   -1.533106   -0.553569
  H     -1.025875   -1.076558    1.125641
  H      3.125860   -1.108889   -0.316415
  H      2.451761    0.283245   -1.224658
  H      2.357785    1.616477    0.858269
  H      2.984814    0.247473    1.790150
  H      4.008689    1.045329    0.584386

 Total Charge           Charge          ....    0
 Multiplicity           Mult            ....    1
 Number of Electrons    NEL             ....   64
 Basis Dimension        Dim             ....  222

ORBITAL ENERGIES
----------------

  NO   OCC          E(Eh)            E(eV)
   0   2.0000     -19.000368      -517.0263
   1   2.0000     -18.944121      -515.4957
   2   2.0000     -10.162148      -276.5261
   3   2.0000     -10.082906      -274.3698
   4   2.0000     -10.035277      -273.0738
   5   2.0000     -10.024011      -272.7672
   6   2.0000     -10.017916      -272.6013
   7   2.0000     -10.010562      -272.4012
   8   2.0000      -1.077291       -29.3146
   9   2.0000      -0.988876       -26.9087
  10   2.0000      -0.766522       -20.8581
  11   2.0000      -0.733153       -19.9501
  12   2.0000      -0.674269       -18.3478
  13   2.0000      -0.616903       -16.7868
  14   2.0000      -0.556674       -15.1479
  15   2.0000      -0.516626       -14.0581
  16   2.0000      -0.474035       -12.8992
  17   2.0000      -0.457698       -12.4546
  18   2.0000      -0.451939       -12.2979
  19   2.0000      -0.417359       -11.3569
  20   2.0000      -0.408859       -11.1256
  21   2.0000      -0.382050       -10.3961
  22   2.0000      -0.370522       -10.0824
  23   2.0000      -0.358580        -9.7575
  24   2.0000      -0.346318        -9.4238
  25   2.0000      -0.337335        -9.1793
  26   2.0000      -0.316798        -8.6205
  27   2.0000      -0.306427        -8.3383
  28   2.0000      -0.303083        -8.2473
  29   2.0000      -0.297010        -8.0820
  30   2.0000      -0.276687        -7.5290
  31   2.0000      -0.252127        -6.8607
  32   0.0000      -0.020382        -0.5546
  33   0.0000       0.080674         2.1953
  34   0.0000       0.095906         2.6097
  35   0.0000       0.113639         3.0923
  36   0.0000       0.132440         3.6039

MULLIKEN ATOMIC CHARGES
-----------------------
   0 C :   -0.515126
   1 C :   -0.246643
   2 C :   -0.315484
   3 C :    0.421800
   4 O :   -0.514204
   5 O :   -0.199465
   6 C :   -0.143319
   7 C :   -0.495696
   8 H :    0.155253
   9 H :    0.160011
  10 H :    0.157284
  11 H :    0.155625
  12 H :    0.153293
  13 H :    0.194322
  14 H :    0.184068
  15 H :    0.173610
  16 H :    0.170540
  17 H :    0.168886
  18 H :    0.165408
  19 H :    0.169837
Sum of atomic charges:    0.0000000

LOEWDIN ATOMIC CHARGES
----------------------
   0 C :   -0.426892
   1 C :   -0.299562
   2 C :   -0.228950
   3 C :    0.375650
   4 O :   -0.495837
   5 O :   -0.600845
   6 C :    0.030882
   7 C :   -0.393924
   8 H :    0.154335
   9 H :    0.154891
  10 H :    0.154333
  11 H :    0.160158
  12 H :    0.161960
  13 H :    0.194514
  14 H :    0.190247
  15 H :    0.188671
  16 H :    0.188582
  17 H :    0.162500
  18 H :    0.161770
  19 H :    0.167517

  Mayer bond orders larger than 0.100000
B(  0-C ,  1-C ) :   0.8805 B(  0-C ,  8-H ) :   0.9777 B(  0-C ,  9-H ) :   0.9727
B(  0-C , 10-H ) :   0.9831 B(  1-C ,  2-C ) :   0.9381 B(  1-C , 11-H ) :   0.9661
B(  1-C , 12-H ) :   0.9647 B(  2-C ,  3-C ) :   1.0063 B(  2-C , 13-H ) :   0.9248
B(  2-C , 14-H ) :   0.9470 B(  3-C ,  4-O ) :   1.7708 B(  3-C ,  5-O ) :   1.0935
B(  5-O ,  6-C ) :   0.7992 B(  6-C ,  7-C ) :   0.9355 B(  6-C , 15-H ) :   0.9522
B(  6-C , 16-H ) :   0.9644 B(  7-C , 17-H ) :   0.9700 B(  7-C , 18-H ) :   0.9697
B(  7-C , 19-H ) :   0.9600

Dispersion correction           -0.004905455
FINAL SINGLE POINT ENERGY      -386.241762490785

DIPOLE MOMENT
-------------

Method             : SCF
Type of density    : Electron Density
Multiplicity       :   1
Irrep              :   0
Energy             :  -386.2485619697191055 Eh
Relativity type    :
Basis              : AO
                                X                 Y                 Z
Electronic contribution:      3.989910171      -0.180600529      -2.590755908
Nuclear contribution   :     -3.658685396      -0.692979591       3.119700143
                        -----------------------------------------
Total Dipole Moment    :      0.331224775      -0.873580120       0.528944235
                        -----------------------------------------
Magnitude (a.u.)       :      1.073607973
Magnitude (Debye)      :      2.728894599

Rotational constants in cm-1:             0.195743             0.028478             0.027334
Rotational constants in MHz :          5868.223871           853.762593           819.459959

                             ****ORCA TERMINATED NORMALLY****
TOTAL RUN TIME: 0 days 0 hours 0 minutes 38 seconds 540 msec
