                         Program Version 6.0.0  -   RELEASE  -
|  1> ! r2scan-3c def2/J RI DEFGRID2 scfconv6 printgap
|  2> %output
|  3>     printlevel normal
|  4> end
|  5> * xyz 0 1
|  6> C 1.9761357769 -0.6545114685 0.2028965127
|  7> C 1.1197430041 0.305784638 -0.6159773557
|  8> C 0.0001321164 0.9640689205 0.1937210788
|  9> C -1.0929829002 0.0059184374 0.67105653
| 10> N -1.906582589 -0.4626396692 -0.4451569034
| 11> H 2.3903180123 -0.1464213886 1.0709812309
| 12> H 1.3952219588 -1.5055419885 0.5495921088
| 13> H 2.7987988208 -1.0317612811 -0.3999344648
| 14> H 1.7609405324 1.097511511 -1.0096725873
| 15> H 0.6943746107 -0.2203106244 -1.4726122833
| 16> H 0.4357387299 1.4502279955 1.0689589472
| 17> H -0.4754314963 1.7302029535 -0.4202241664
| 18> H -1.7600407917 0.5497754946 1.3466824397
| 19> H -0.6385068553 -0.816340791 1.2477883727
| 20> H -1.3342329954 -1.0118297006 -1.07765583
| 21> H -2.6413634045 -1.0697210695 -0.100402086
| 22> *
| 23>
| 24>                          ****END OF INPUT****

CARTESIAN COORDINATES (ANGSTROEM)
---------------------------------
  C      1.976136   -0.654511    0.202897
  C      1.119743    0.305785   -0.615977
  C      0.000132    0.964069    0.193721
  C     -1.092983    0.005918    0.671057
  N     -1.906583   -0.462640   -0.445157
  H      2.390318   -0.146421    1.070981
  H      1.395222   -1.505542    0.549592
  H      2.798799   -1.031761   -0.399934
  H      1.760941    1.097512   -1.009673
  H      0.694375   -0.220311   -1.472612
  H      0.435739    1.450228    1.068959
  H     -0.475431    1.730203   -0.420224
  H     -1.760041    0.549775    1.346682
  H     -0.638507   -0.816341    1.247788
  H     -1.334233   -1.011830   -1.077656
  H     -2.641363   -1.069721   -0.100402

 Total Charge           Charge          ....    0
 Multiplicity           Mult            ....    1
 Number of Electrons    NEL             ....   42
 Basis Dimension        Dim             ....  155

ORBITAL ENERGIES
----------------

  NO   OCC          E(Eh)            E(eV)
   0   2.0000     -14.133765      -384.5993
   1   2.0000     -10.046764      -273.3864
   2   2.0000     -10.024987      -272.7938
   3   2.0000     -10.019392      -272.6415
   4   2.0000     -10.016330      -272.5582
   5   2.0000      -0.845360       -23.0034
   6   2.0000      -0.750549       -20.4235
   7   2.0000      -0.671145       -18.2628
   8   2.0000      -0.597305       -16.2535
   9   2.0000      -0.525962       -14.3121
  10   2.0000      -0.463320       -12.6076
  11   2.0000      -0.437616       -11.9081
  12   2.0000      -0.406980       -11.0745
  13   2.0000      -0.395429       -10.7602
  14   2.0000      -0.364568        -9.9204
  15   2.0000      -0.347051        -9.4437
  16   2.0000      -0.336211        -9.1488
  17   2.0000      -0.299761        -8.1569
  18   2.0000      -0.293828        -7.9955
  19   2.0000      -0.288821        -7.8592
  20   2.0000      -0.204033        -5.5520
  21   0.0000       0.067023         1.8238
  22   0.0000       0.109719         2.9856
  23   0.0000       0.115544         3.1441
  24   0.0000       0.123634         3.3642
  25   0.0000       0.133838         3.6419

MULLIKEN ATOMIC CHARGES
-----------------------
   0 C :   -0.488927
   1 C :   -0.235822
   2 C :   -0.238358
   3 C :   -0.216438
   4 N :   -0.563958
   5 H :    0.145762
   6 H :    0.146349
   7 H :    0.145632
   8 H :    0.143822
   9 H :    0.126487
  10 H :    0.131729
  11 H :    0.153999
  12 H :    0.137294
  13 H :    0.129472
  14 H :    0.241667
  15 H :    0.241289
Sum of atomic charges:    0.0000000

LOEWDIN ATOMIC CHARGES
----------------------
   0 C :   -0.427750
   1 C :   -0.317691
   2 C :   -0.290187
   3 C :   -0.076591
   4 N :   -0.747023
   5 H :    0.150791
   6 H :    0.147444
   7 H :    0.150542
   8 H :    0.153789
   9 H :    0.148029
  10 H :    0.155532
  11 H :    0.164535
  12 H :    0.171540
  13 H :    0.147106
  14 H :    0.234109
  15 H :    0.235823

  Mayer bond orders larger than 0.100000
B(  0-C ,  1-C ) :   0.9011 B(  0-C ,  5-H ) :   0.9818 B(  0-C ,  6-H ) :   0.9807
B(  0-C ,  7-H ) :   0.9691 B(  1-C ,  2-C ) :   0.9092 B(  1-C ,  8-H ) :   0.9654
B(  1-C ,  9-H ) :   0.9807 B(  2-C ,  3-C ) :   0.9409 B(  2-C , 10-H ) :   0.9744
B(  2-C , 11-H ) :   0.9641 B(  3-C ,  4-N ) :   0.9189 B(  3-C , 12-H ) :   0.9684
B(  3-C , 13-H ) :   0.9849 B(  4-N , 14-H ) :   0.9236 B(  4-N , 15-H ) :   0.9187

Dispersion correction           -0.003549817
FINAL SINGLE POINT ENERGY      -213.722134569334

DIPOLE MOMENT
-------------

Method             : SCF
Type of density    : Electron Density
Multiplicity       :   1
Irrep              :   0
Energy             :  -213.7292072433681938 Eh
Relativity type    :
Basis              : AO
                                X                 Y                 Z
Electronic contribution:     -2.267056255       0.562522563      -0.554070802
Nuclear contribution   :      2.453024486      -0.916494053       0.751382513
                        -----------------------------------------
Total Dipole Moment    :      0.185968231      -0.353971490       0.197311712
                        -----------------------------------------
Magnitude (a.u.)       :      0.445883293
Magnitude (Debye)      :      1.133345261

Rotational constants in cm-1:             0.291788             0.091940             0.087367
Rotational constants in MHz :          8747.595219          2756.293982          2619.193314

                             ****ORCA TERMINATED NORMALLY****
TOTAL RUN TIME: 0 days 0 hours 0 minutes 17 seconds 677 msec
