                         Program Version 6.0.0  -   RELEASE  -
|  1> ! r2scan-3c def2/J RI DEFGRID2 scfconv6 printgap
|  2> %output
|  3>     printlevel normal
|  4> end
|  5> %cpcm
|  6>     smd true
|  7>     smdsolvent "water"
|  8> end
|  9> * xyz 0 1
| 10> C 1.9761357769 -0.6545114685 0.2028965127
| 11> C 1.1197430041 0.305784638 -0.6159773557
| 12> C 0.0001321164 0.9640689205 0.1937210788
| 13> C -1.0929829002 0.0059184374 0.67105653
| 14> N -1.906582589 -0.4626396692 -0.4451569034
| 15> H 2.3903180123 -0.1464213886 1.0709812309
| 16> H 1.3952219588 -1.5055419885 0.5495921088
| 17> H 2.7987988208 -1.0317612811 -0.3999344648
| 18> H 1.7609405324 1.097511511 -1.0096725873
| 19> H 0.6943746107 -0.2203106244 -1.4726122833
| 20> H 0.4357387299 1.4502279955 1.0689589472
| 21> H -0.4754314963 1.7302029535 -0.4202241664
| 22> H -1.7600407917 0.5497754946 1.3466824397
| 23> H -0.6385068553 -0.816340791 1.2477883727
| 24> H -1.3342329954 -1.0118297006 -1.07765583
| 25> H -2.6413634045 -1.0697210695 -0.100402086
| 26> *
| 27>
| 28>                          ****END OF INPUT****

CARTESIAN COORDINATES (ANGSTROEM)
---------------------------------
  C      1.976136   -0.654511    0.202897
  C      1.119743    0.305785   -0.615977
  C      0.000132    0.964069    0.193721
  C     -1.092983    0.005918    0.671057
  N     -1.906583   -0.462640   -0.445157
  H      2.390318   -0.146421    1.070981
  H      1.395222   -1.505542    0.549592
  H      2.798799   -1.031761   -0.399934
  H      1.760941    1.097512   -1.009673
  H      0.694375   -0.220311   -1.472612
  H      0.435739    1.450228    1.068959
  H     -0.475431    1.730203   -0.420224
  H     -1.760041    0.549775    1.346682
  H     -0.638507   -0.816341    1.247788
  H     -1.334233   -1.011830   -1.077656
  H     -2.641363   -1.069721   -0.100402

 Total Charge           Charge          ....    0
 Multiplicity           Mult            ....    1
 Number of Electrons    NEL             ....   42
 Basis Dimension        Dim             ....  155

ORBITAL ENERGIES
----------------

  NO   OCC          E(Eh)            E(eV)
   0   2.0000     -14.127513      -384.4292
   1   2.0000     -10.040249      -273.2091
   2   2.0000     -10.016326      -272.5581
   3   2.0000     -10.013545      -272.4824
   4   2.0000     -10.006837      -272.2999
   5   2.0000      -0.839388       -22.8409
   6   2.0000      -0.742858       -20.2142
   7   2.0000      -0.664069       -18.0702
   8   2.0000      -0.589856       -16.0508
   9   2.0000      -0.518884       -14.1196
  10   2.0000      -0.455574       -12.3968
  11   2.0000      -0.431813       -11.7502
  12   2.0000      -0.398150       -10.8342
  13   2.0000      -0.387920       -10.5558
  14   2.0000      -0.357882        -9.7385
  15   2.0000      -0.339283        -9.2324
  16   2.0000      -0.328224        -8.9314
  17   2.0000      -0.292407        -7.9568
  18   2.0000      -0.286524        -7.7967
  19   2.0000      -0.281157        -7.6507
  20   2.0000      -0.204507        -5.5649
  21   0.0000       0.079228         2.1559
  22   0.0000       0.118059         3.2125
  23   0.0000       0.125997         3.4285
  24   0.0000       0.130722         3.5571
  25   0.0000       0.139722         3.8020

MULLIKEN ATOMIC CHARGES
-----------------------
   0 C :   -0.528793
   1 C :   -0.235961
   2 C :   -0.264810
   3 C :   -0.235621
   4 N :   -0.654687
   5 H :    0.155861
   6 H :    0.159647
   7 H :    0.154820
   8 H :    0.150496
   9 H :    0.141201
  10 H :    0.146070
  11 H :    0.150266
  12 H :    0.150421
  13 H :    0.140640
  14 H :    0.287240
  15 H :    0.283211
Sum of atomic charges:    0.0000000

LOEWDIN ATOMIC CHARGES
----------------------
   0 C :   -0.434976
   1 C :   -0.320123
   2 C :   -0.295701
   3 C :   -0.079611
   4 N :   -0.769655
   5 H :    0.152802
   6 H :    0.151313
   7 H :    0.152720
   8 H :    0.154819
   9 H :    0.153008
  10 H :    0.159515
  11 H :    0.160449
  12 H :    0.173573
  13 H :    0.152787
  14 H :    0.243878
  15 H :    0.245202

  Mayer bond orders larger than 0.100000
B(  0-C ,  1-C ) :   0.8937 B(  0-C ,  5-H ) :   0.9799 B(  0-C ,  6-H ) :   0.9781
B(  0-C ,  7-H ) :   0.9669 B(  1-C ,  2-C ) :   0.9061 B(  1-C ,  8-H ) :   0.9662
B(  1-C ,  9-H ) :   0.9770 B(  2-C ,  3-C ) :   0.9294 B(  2-C , 10-H ) :   0.9736
B(  2-C , 11-H ) :   0.9682 B(  3-C ,  4-N ) :   0.9298 B(  3-C , 12-H ) :   0.9698
B(  3-C , 13-H ) :   0.9869 B(  4-N , 14-H ) :   0.9065 B(  4-N , 15-H ) :   0.9020

Dispersion correction           -0.003549817
FINAL SINGLE POINT ENERGY      -213.727524311555

DIPOLE MOMENT
-------------

Method             : SCF
Type of density    : Electron Density
Multiplicity       :   1
Irrep              :   0
Energy             :  -213.7345969855898602 Eh
Relativity type    :
Basis              : AO
                                X                 Y                 Z
Electronic contribution:     -2.193029770       0.384452959      -0.469956810
Nuclear contribution   :      2.453024486      -0.916494053       0.751382513
                        -----------------------------------------
Total Dipole Moment    :      0.259994716      -0.532041094       0.281425704
                        -----------------------------------------
Magnitude (a.u.)       :      0.655641217
Magnitude (Debye)      :      1.666507533

Rotational constants in cm-1:             0.291788             0.091940             0.087367
Rotational constants in MHz :          8747.595219          2756.293982          2619.193314

                             ****ORCA TERMINATED NORMALLY****
TOTAL RUN TIME: 0 days 0 hours 0 minutes 21 seconds 874 msec
