                         Program Version 6.0.0  -   RELEASE  -
|  1> ! pbe def2-sv(p) def2/J RI DEFGRID1 loosescf d4 GCP(DFT/SV(P)) printgap
|  2> %output
|  3>     printlevel normal
|  4> end
|  5> * xyz 0 1
|  6> C 2.7577635757 -0.9675657975 -0.115763293
|  7> C 2.3155941087 0.3049628546 0.5982525609
|  8> C 1.3945477193 1.1850462074 -0.2493242233
|  9> C 0.0798670495 0.5243859515 -0.6753036327
| 10> C -0.7870943355 0.1589828931 0.5165755472
| 11> Cl -2.3838711022 -0.4623279112 -0.0349570938
| 12> H 1.9183306143 -1.637047988 -0.2828904211
| 13> H 3.4955975521 -1.4966093872 0.4824976449
| 14> H 3.2050605063 -0.7277097149 -1.0776666684
| 15> H 1.8224076133 0.0454240062 1.5359598498
| 16> H 3.2013583472 0.8926356584 0.8491803452
| 17> H 1.9289045213 1.479518067 -1.1544371943
| 18> H 1.1663121719 2.0935061732 0.3116753373
| 19> H 0.2821230632 -0.3686786187 -1.266688141
| 20> H -0.4694029624 1.2231356833 -1.3092114766
| 21> H -0.350159145 -0.6378934892 1.11409311
| 22> H -0.9967647307 1.0266675154 1.1400528794
| 23> *
| 24>
| 25>                          ****END OF INPUT****

CARTESIAN COORDINATES (ANGSTROEM)
---------------------------------
  C      2.757764   -0.967566   -0.115763
  C      2.315594    0.304963    0.598253
  C      1.394548    1.185046   -0.249324
  C      0.079867    0.524386   -0.675304
  C     -0.787094    0.158983    0.516576
  Cl    -2.383871   -0.462328   -0.034957
  H      1.918331   -1.637048   -0.282890
  H      3.495598   -1.496609    0.482498
  H      3.205061   -0.727710   -1.077667
  H      1.822408    0.045424    1.535960
  H      3.201358    0.892636    0.849180
  H      1.928905    1.479518   -1.154437
  H      1.166312    2.093506    0.311675
  H      0.282123   -0.368679   -1.266688
  H     -0.469403    1.223136   -1.309211
  H     -0.350159   -0.637893    1.114093
  H     -0.996765    1.026668    1.140053

 Total Charge           Charge          ....    0
 Multiplicity           Mult            ....    1
 Number of Electrons    NEL             ....   58
 Basis Dimension        Dim             ....  110

ORBITAL ENERGIES
----------------

  NO   OCC          E(Eh)            E(eV)
   0   2.0000    -100.613500     -2737.8325
   1   2.0000      -9.938085      -270.4290
   2   2.0000      -9.893472      -269.2150
   3   2.0000      -9.891571      -269.1633
   4   2.0000      -9.889760      -269.1140
   5   2.0000      -9.878552      -268.8091
   6   2.0000      -9.149233      -248.9633
   7   2.0000      -6.980851      -189.9586
   8   2.0000      -6.968909      -189.6337
   9   2.0000      -6.968801      -189.6307
  10   2.0000      -0.773707       -21.0536
  11   2.0000      -0.724817       -19.7233
  12   2.0000      -0.664707       -18.0876
  13   2.0000      -0.600875       -16.3506
  14   2.0000      -0.555903       -15.1269
  15   2.0000      -0.502164       -13.6646
  16   2.0000      -0.439773       -11.9668
  17   2.0000      -0.423544       -11.5252
  18   2.0000      -0.392421       -10.6783
  19   2.0000      -0.381766       -10.3884
  20   2.0000      -0.374125       -10.1805
  21   2.0000      -0.340416        -9.2632
  22   2.0000      -0.332349        -9.0437
  23   2.0000      -0.326991        -8.8979
  24   2.0000      -0.296207        -8.0602
  25   2.0000      -0.288118        -7.8401
  26   2.0000      -0.286847        -7.8055
  27   2.0000      -0.241857        -6.5813
  28   2.0000      -0.240156        -6.5350
  29   0.0000       0.004603         0.1252
  30   0.0000       0.039696         1.0802
  31   0.0000       0.056306         1.5322
  32   0.0000       0.059249         1.6122
  33   0.0000       0.072376         1.9695

MULLIKEN ATOMIC CHARGES
-----------------------
   0 C :   -0.293727
   1 C :   -0.194706
   2 C :   -0.168745
   3 C :   -0.150361
   4 C :   -0.191602
   5 Cl:   -0.154306
   6 H :    0.110621
   7 H :    0.106642
   8 H :    0.101326
   9 H :    0.093056
  10 H :    0.089345
  11 H :    0.089880
  12 H :    0.085767
  13 H :    0.102726
  14 H :    0.097882
  15 H :    0.144092
  16 H :    0.132111
Sum of atomic charges:   -0.0000000

LOEWDIN ATOMIC CHARGES
----------------------
   0 C :   -0.343223
   1 C :   -0.238495
   2 C :   -0.227123
   3 C :   -0.251982
   4 C :   -0.271970
   5 Cl:    0.016877
   6 H :    0.117535
   7 H :    0.121850
   8 H :    0.118680
   9 H :    0.112747
  10 H :    0.118776
  11 H :    0.119716
  12 H :    0.115978
  13 H :    0.120311
  14 H :    0.122807
  15 H :    0.123720
  16 H :    0.123796

  Mayer bond orders larger than 0.100000
B(  0-C ,  1-C ) :   1.1502 B(  0-C ,  6-H ) :   0.9484 B(  0-C ,  7-H ) :   0.9513
B(  0-C ,  8-H ) :   0.9550 B(  1-C ,  2-C ) :   1.1220 B(  1-C ,  9-H ) :   0.9243
B(  1-C , 10-H ) :   0.9247 B(  2-C ,  3-C ) :   1.1086 B(  2-C , 11-H ) :   0.9200
B(  2-C , 12-H ) :   0.9223 B(  3-C ,  4-C ) :   1.1041 B(  3-C , 13-H ) :   0.9142
B(  3-C , 14-H ) :   0.9169 B(  4-C ,  5-Cl) :   1.0325 B(  4-C , 15-H ) :   0.9199
B(  4-C , 16-H ) :   0.9282

Dispersion correction           -0.013220714
FINAL SINGLE POINT ENERGY      -656.511371672845

DIPOLE MOMENT
-------------

Method             : SCF
Type of density    : Electron Density
Multiplicity       :   1
Irrep              :   0
Energy             :  -656.5689027949426873 Eh
Relativity type    :
Basis              : AO
                                X                 Y                 Z
Electronic contribution:    -16.720620419      -2.134753338      -0.198903927
Nuclear contribution   :     17.463337654       2.396443105       0.368303439
                        -----------------------------------------
Total Dipole Moment    :      0.742717234       0.261689767       0.169399513
                        -----------------------------------------
Magnitude (a.u.)       :      0.805485332
Magnitude (Debye)      :      2.047381005

Rotational constants in cm-1:             0.211204             0.036444             0.034285
Rotational constants in MHz :          6331.749992          1092.570174          1027.846705

                             ****ORCA TERMINATED NORMALLY****
TOTAL RUN TIME: 0 days 0 hours 0 minutes 7 seconds 172 msec
