                         Program Version 6.0.0  -   RELEASE  -
|  1> ! r2scan-3c def2/J RI DEFGRID2 scfconv6 printgap
|  2> %output
|  3>     printlevel normal
|  4> end
|  5> * xyz 0 1
|  6> C -3.2978707247 -0.8454152412 -0.3440499062
|  7> C -1.8980007313 -0.6203298369 0.2145013233
|  8> C -1.5033374685 0.8542976546 0.1647051782
|  9> C -0.1156095322 1.0944025773 0.7669189761
| 10> C 0.9526736752 0.4452028811 -0.0733018893
| 11> O 1.1040392367 0.6137446486 -1.2650410313
| 12> O 1.7307649873 -0.3531139731 0.6504855553
| 13> C 2.7987689024 -1.027465518 -0.020135133
| 14> H -3.5606108776 -1.8992343563 -0.3023582265
| 15> H -4.0302386272 -0.2837891603 0.2307503679
| 16> H -3.3499161765 -0.5182737202 -1.3799057193
| 17> H -1.8574905158 -0.9709999012 1.2479144884
| 18> H -1.1771935658 -1.2048652421 -0.3633017063
| 19> H -2.2356819567 1.4453019491 0.7158601843
| 20> H -1.4980039911 1.1943585539 -0.8729027876
| 21> H -0.0516615623 0.6972823313 1.7792224314
| 22> H 0.0893314901 2.1661725516 0.7852935338
| 23> H 2.4173898983 -1.5506568845 -0.8978734616
| 24> H 3.2081139611 -1.7236399261 0.7049043342
| 25> H 3.5521043801 -0.3054732884 -0.3368967536
| 26> *
| 27>
| 28>                          ****END OF INPUT****

CARTESIAN COORDINATES (ANGSTROEM)
---------------------------------
  C     -3.297871   -0.845415   -0.344050
  C     -1.898001   -0.620330    0.214501
  C     -1.503337    0.854298    0.164705
  C     -0.115610    1.094403    0.766919
  C      0.952674    0.445203   -0.073302
  O      1.104039    0.613745   -1.265041
  O      1.730765   -0.353114    0.650486
  C      2.798769   -1.027466   -0.020135
  H     -3.560611   -1.899234   -0.302358
  H     -4.030239   -0.283789    0.230750
  H     -3.349916   -0.518274   -1.379906
  H     -1.857491   -0.971000    1.247914
  H     -1.177194   -1.204865   -0.363302
  H     -2.235682    1.445302    0.715860
  H     -1.498004    1.194359   -0.872903
  H     -0.051662    0.697282    1.779222
  H      0.089331    2.166173    0.785294
  H      2.417390   -1.550657   -0.897873
  H      3.208114   -1.723640    0.704904
  H      3.552104   -0.305473   -0.336897

 Total Charge           Charge          ....    0
 Multiplicity           Mult            ....    1
 Number of Electrons    NEL             ....   64
 Basis Dimension        Dim             ....  222

ORBITAL ENERGIES
----------------

  NO   OCC          E(Eh)            E(eV)
   0   2.0000     -19.000207      -517.0219
   1   2.0000     -18.928941      -515.0827
   2   2.0000     -10.152038      -276.2510
   3   2.0000     -10.086865      -274.4776
   4   2.0000     -10.041572      -273.2451
   5   2.0000     -10.032194      -272.9899
   6   2.0000     -10.027201      -272.8540
   7   2.0000     -10.017060      -272.5781
   8   2.0000      -1.073479       -29.2109
   9   2.0000      -0.976279       -26.5659
  10   2.0000      -0.777880       -21.1672
  11   2.0000      -0.726740       -19.7756
  12   2.0000      -0.687005       -18.6944
  13   2.0000      -0.615026       -16.7357
  14   2.0000      -0.558025       -15.1846
  15   2.0000      -0.526693       -14.3321
  16   2.0000      -0.473601       -12.8873
  17   2.0000      -0.456225       -12.4145
  18   2.0000      -0.445485       -12.1223
  19   2.0000      -0.425916       -11.5898
  20   2.0000      -0.409935       -11.1549
  21   2.0000      -0.396704       -10.7949
  22   2.0000      -0.387813       -10.5529
  23   2.0000      -0.352755        -9.5990
  24   2.0000      -0.349805        -9.5187
  25   2.0000      -0.336964        -9.1693
  26   2.0000      -0.321752        -8.7553
  27   2.0000      -0.307365        -8.3638
  28   2.0000      -0.299606        -8.1527
  29   2.0000      -0.295444        -8.0395
  30   2.0000      -0.274716        -7.4754
  31   2.0000      -0.237190        -6.4543
  32   0.0000      -0.016322        -0.4441
  33   0.0000       0.064789         1.7630
  34   0.0000       0.090437         2.4609
  35   0.0000       0.107868         2.9352
  36   0.0000       0.113337         3.0841

MULLIKEN ATOMIC CHARGES
-----------------------
   0 C :   -0.475375
   1 C :   -0.251052
   2 C :   -0.260443
   3 C :   -0.288618
   4 C :    0.337600
   5 O :   -0.417368
   6 O :   -0.181677
   7 C :   -0.296517
   8 H :    0.147161
   9 H :    0.140777
  10 H :    0.146288
  11 H :    0.139816
  12 H :    0.147131
  13 H :    0.144130
  14 H :    0.164700
  15 H :    0.161676
  16 H :    0.167605
  17 H :    0.165995
  18 H :    0.150493
  19 H :    0.157678
Sum of atomic charges:    0.0000000

LOEWDIN ATOMIC CHARGES
----------------------
   0 C :   -0.422090
   1 C :   -0.309141
   2 C :   -0.287410
   3 C :   -0.229692
   4 C :    0.348523
   5 O :   -0.428444
   6 O :   -0.603921
   7 C :   -0.045629
   8 H :    0.150918
   9 H :    0.149730
  10 H :    0.152124
  11 H :    0.151411
  12 H :    0.157275
  13 H :    0.155862
  14 H :    0.169998
  15 H :    0.178003
  16 H :    0.182005
  17 H :    0.179344
  18 H :    0.176142
  19 H :    0.174991

  Mayer bond orders larger than 0.100000
B(  0-C ,  1-C ) :   0.9032 B(  0-C ,  8-H ) :   0.9742 B(  0-C ,  9-H ) :   0.9826
B(  0-C , 10-H ) :   0.9832 B(  1-C ,  2-C ) :   0.9251 B(  1-C , 11-H ) :   0.9700
B(  1-C , 12-H ) :   0.9591 B(  2-C ,  3-C ) :   0.8910 B(  2-C , 13-H ) :   0.9706
B(  2-C , 14-H ) :   0.9714 B(  3-C ,  4-C ) :   0.9390 B(  3-C , 15-H ) :   1.0033
B(  3-C , 16-H ) :   0.9402 B(  4-C ,  5-O ) :   1.8202 B(  4-C ,  6-O ) :   1.0533
B(  6-O ,  7-C ) :   0.8525 B(  7-C , 17-H ) :   0.9637 B(  7-C , 18-H ) :   0.9691
B(  7-C , 19-H ) :   0.9611

Dispersion correction           -0.005119631
FINAL SINGLE POINT ENERGY      -386.231740601006

DIPOLE MOMENT
-------------

Method             : SCF
Type of density    : Electron Density
Multiplicity       :   1
Irrep              :   0
Energy             :  -386.2385538353158836 Eh
Relativity type    :
Basis              : AO
                                X                 Y                 Z
Electronic contribution:      7.984384230       2.463439965      -0.553951777
Nuclear contribution   :     -7.926619342      -2.767308157       1.220548633
                        -----------------------------------------
Total Dipole Moment    :      0.057764888      -0.303868191       0.666596856
                        -----------------------------------------
Magnitude (a.u.)       :      0.734863272
Magnitude (Debye)      :      1.867873995

Rotational constants in cm-1:             0.127499             0.033230             0.031485
Rotational constants in MHz :          3822.321532           996.203748           943.907374

                             ****ORCA TERMINATED NORMALLY****
TOTAL RUN TIME: 0 days 0 hours 0 minutes 29 seconds 142 msec
