                         Program Version 6.0.0  -   RELEASE  -
|  1> ! r2scan-3c def2/J RI DEFGRID2 scfconv6 printgap
|  2> %output
|  3>     printlevel normal
|  4> end
|  5> %cpcm
|  6>     smd true
|  7>     smdsolvent "water"
|  8> end
|  9> * xyz 0 1
| 10> C -3.2978707247 -0.8454152412 -0.3440499062
| 11> C -1.8980007313 -0.6203298369 0.2145013233
| 12> C -1.5033374685 0.8542976546 0.1647051782
| 13> C -0.1156095322 1.0944025773 0.7669189761
| 14> C 0.9526736752 0.4452028811 -0.0733018893
| 15> O 1.1040392367 0.6137446486 -1.2650410313
| 16> O 1.7307649873 -0.3531139731 0.6504855553
| 17> C 2.7987689024 -1.027465518 -0.020135133
| 18> H -3.5606108776 -1.8992343563 -0.3023582265
| 19> H -4.0302386272 -0.2837891603 0.2307503679
| 20> H -3.3499161765 -0.5182737202 -1.3799057193
| 21> H -1.8574905158 -0.9709999012 1.2479144884
| 22> H -1.1771935658 -1.2048652421 -0.3633017063
| 23> H -2.2356819567 1.4453019491 0.7158601843
| 24> H -1.4980039911 1.1943585539 -0.8729027876
| 25> H -0.0516615623 0.6972823313 1.7792224314
| 26> H 0.0893314901 2.1661725516 0.7852935338
| 27> H 2.4173898983 -1.5506568845 -0.8978734616
| 28> H 3.2081139611 -1.7236399261 0.7049043342
| 29> H 3.5521043801 -0.3054732884 -0.3368967536
| 30> *
| 31>
| 32>                          ****END OF INPUT****

CARTESIAN COORDINATES (ANGSTROEM)
---------------------------------
  C     -3.297871   -0.845415   -0.344050
  C     -1.898001   -0.620330    0.214501
  C     -1.503337    0.854298    0.164705
  C     -0.115610    1.094403    0.766919
  C      0.952674    0.445203   -0.073302
  O      1.104039    0.613745   -1.265041
  O      1.730765   -0.353114    0.650486
  C      2.798769   -1.027466   -0.020135
  H     -3.560611   -1.899234   -0.302358
  H     -4.030239   -0.283789    0.230750
  H     -3.349916   -0.518274   -1.379906
  H     -1.857491   -0.971000    1.247914
  H     -1.177194   -1.204865   -0.363302
  H     -2.235682    1.445302    0.715860
  H     -1.498004    1.194359   -0.872903
  H     -0.051662    0.697282    1.779222
  H      0.089331    2.166173    0.785294
  H      2.417390   -1.550657   -0.897873
  H      3.208114   -1.723640    0.704904
  H      3.552104   -0.305473   -0.336897

 Total Charge           Charge          ....    0
 Multiplicity           Mult            ....    1
 Number of Electrons    NEL             ....   64
 Basis Dimension        Dim             ....  222

ORBITAL ENERGIES
----------------

  NO   OCC          E(Eh)            E(eV)
   0   2.0000     -19.005375      -517.1625
   1   2.0000     -18.944570      -515.5080
   2   2.0000     -10.162381      -276.5324
   3   2.0000     -10.076334      -274.1910
   4   2.0000     -10.035693      -273.0851
   5   2.0000     -10.025613      -272.8108
   6   2.0000     -10.019154      -272.6350
   7   2.0000     -10.008780      -272.3527
   8   2.0000      -1.080317       -29.3969
   9   2.0000      -0.989610       -26.9286
  10   2.0000      -0.772525       -21.0215
  11   2.0000      -0.721958       -19.6455
  12   2.0000      -0.680764       -18.5245
  13   2.0000      -0.608623       -16.5615
  14   2.0000      -0.551585       -15.0094
  15   2.0000      -0.524853       -14.2820
  16   2.0000      -0.473951       -12.8969
  17   2.0000      -0.458163       -12.4672
  18   2.0000      -0.451558       -12.2875
  19   2.0000      -0.424528       -11.5520
  20   2.0000      -0.402978       -10.9656
  21   2.0000      -0.390200       -10.6179
  22   2.0000      -0.385562       -10.4917
  23   2.0000      -0.353632        -9.6228
  24   2.0000      -0.343758        -9.3541
  25   2.0000      -0.330798        -9.0015
  26   2.0000      -0.322607        -8.7786
  27   2.0000      -0.301490        -8.2040
  28   2.0000      -0.291933        -7.9439
  29   2.0000      -0.288701        -7.8559
  30   2.0000      -0.282185        -7.6786
  31   2.0000      -0.253552        -6.8995
  32   0.0000      -0.023984        -0.6526
  33   0.0000       0.069194         1.8829
  34   0.0000       0.097722         2.6592
  35   0.0000       0.116697         3.1755
  36   0.0000       0.124550         3.3892

MULLIKEN ATOMIC CHARGES
-----------------------
   0 C :   -0.517959
   1 C :   -0.256780
   2 C :   -0.274840
   3 C :   -0.305943
   4 C :    0.380294
   5 O :   -0.502935
   6 O :   -0.199096
   7 C :   -0.330786
   8 H :    0.157869
   9 H :    0.154939
  10 H :    0.154475
  11 H :    0.154496
  12 H :    0.152570
  13 H :    0.164118
  14 H :    0.159230
  15 H :    0.177524
  16 H :    0.197112
  17 H :    0.177965
  18 H :    0.178410
  19 H :    0.179336
Sum of atomic charges:    0.0000000

LOEWDIN ATOMIC CHARGES
----------------------
   0 C :   -0.430300
   1 C :   -0.310834
   2 C :   -0.287330
   3 C :   -0.226860
   4 C :    0.358425
   5 O :   -0.489397
   6 O :   -0.606040
   7 C :   -0.043005
   8 H :    0.153515
   9 H :    0.153529
  10 H :    0.153279
  11 H :    0.156217
  12 H :    0.157485
  13 H :    0.163472
  14 H :    0.166080
  15 H :    0.185473
  16 H :    0.192349
  17 H :    0.183571
  18 H :    0.188364
  19 H :    0.182009

  Mayer bond orders larger than 0.100000
B(  0-C ,  1-C ) :   0.8930 B(  0-C ,  8-H ) :   0.9712 B(  0-C ,  9-H ) :   0.9798
B(  0-C , 10-H ) :   0.9817 B(  1-C ,  2-C ) :   0.9170 B(  1-C , 11-H ) :   0.9680
B(  1-C , 12-H ) :   0.9588 B(  2-C ,  3-C ) :   0.8736 B(  2-C , 13-H ) :   0.9648
B(  2-C , 14-H ) :   0.9787 B(  3-C ,  4-C ) :   0.9417 B(  3-C , 15-H ) :   0.9929
B(  3-C , 16-H ) :   0.9344 B(  4-C ,  5-O ) :   1.7535 B(  4-C ,  6-O ) :   1.0769
B(  6-O ,  7-C ) :   0.8333 B(  7-C , 17-H ) :   0.9586 B(  7-C , 18-H ) :   0.9591
B(  7-C , 19-H ) :   0.9551

Dispersion correction           -0.005119631
FINAL SINGLE POINT ENERGY      -386.236683477787

DIPOLE MOMENT
-------------

Method             : SCF
Type of density    : Electron Density
Multiplicity       :   1
Irrep              :   0
Energy             :  -386.2434967120969986 Eh
Relativity type    :
Basis              : AO
                                X                 Y                 Z
Electronic contribution:      7.996947978       2.383328700      -0.204618733
Nuclear contribution   :     -7.926619342      -2.767308157       1.220548633
                        -----------------------------------------
Total Dipole Moment    :      0.070328636      -0.383979457       1.015929900
                        -----------------------------------------
Magnitude (a.u.)       :      1.088347326
Magnitude (Debye)      :      2.766359056

Rotational constants in cm-1:             0.127499             0.033230             0.031485
Rotational constants in MHz :          3822.321532           996.203748           943.907374

                             ****ORCA TERMINATED NORMALLY****
TOTAL RUN TIME: 0 days 0 hours 0 minutes 33 seconds 867 msec
