                         Program Version 6.0.0  -   RELEASE  -
|  1> ! r2scan-3c def2/J RI DEFGRID2 scfconv6 printgap
|  2> %output
|  3>     printlevel normal
|  4> end
|  5> * xyz 0 1
|  6> C -2.3359234728 -1.2182736012 0.7436643929
|  7> C -2.5287149519 0.0496068587 -0.0794526669
|  8> C -1.323509234 0.3229033945 -0.9859790224
|  9> C -0.1016230291 0.6437427535 -0.1646644971
| 10> O -0.0303627346 1.5325524494 0.6599373449
| 11> O 0.9074573349 -0.169010255 -0.4424640114
| 12> C 2.1425353907 0.0221108022 0.2680811475
| 13> C 3.0783149653 -1.1143489737 -0.0951590358
| 14> H -3.2127245332 -1.4087701712 1.356712204
| 15> H -2.1737778804 -2.0748144347 0.0938125569
| 16> H -1.4745019855 -1.1172456992 1.4013695266
| 17> H -2.6643266154 0.9037006393 0.5867827212
| 18> H -3.4197752829 -0.047664704 -0.7000623194
| 19> H -1.5331123594 1.1895287849 -1.6149576995
| 20> H -1.103761964 -0.5389340674 -1.6146637549
| 21> H 2.5558966367 0.9952465293 -0.0165719056
| 22> H 1.9248808711 0.0460211414 1.3411008112
| 23> H 4.0209978453 -0.9842592543 0.4259176139
| 24> H 2.6382557905 -2.0651522665 0.1906222658
| 25> H 3.2571243528 -1.1190226509 -1.1661827318
| 26> *
| 27>
| 28>                          ****END OF INPUT****

CARTESIAN COORDINATES (ANGSTROEM)
---------------------------------
  C     -2.335923   -1.218274    0.743664
  C     -2.528715    0.049607   -0.079453
  C     -1.323509    0.322903   -0.985979
  C     -0.101623    0.643743   -0.164664
  O     -0.030363    1.532552    0.659937
  O      0.907457   -0.169010   -0.442464
  C      2.142535    0.022111    0.268081
  C      3.078315   -1.114349   -0.095159
  H     -3.212725   -1.408770    1.356712
  H     -2.173778   -2.074814    0.093813
  H     -1.474502   -1.117246    1.401370
  H     -2.664327    0.903701    0.586783
  H     -3.419775   -0.047665   -0.700062
  H     -1.533112    1.189529   -1.614958
  H     -1.103762   -0.538934   -1.614664
  H      2.555897    0.995247   -0.016572
  H      1.924881    0.046021    1.341101
  H      4.020998   -0.984259    0.425918
  H      2.638256   -2.065152    0.190622
  H      3.257124   -1.119023   -1.166183

 Total Charge           Charge          ....    0
 Multiplicity           Mult            ....    1
 Number of Electrons    NEL             ....   64
 Basis Dimension        Dim             ....  222

ORBITAL ENERGIES
----------------

  NO   OCC          E(Eh)            E(eV)
   0   2.0000     -18.997204      -516.9402
   1   2.0000     -18.926404      -515.0136
   2   2.0000     -10.150169      -276.2001
   3   2.0000     -10.091473      -274.6029
   4   2.0000     -10.040125      -273.2057
   5   2.0000     -10.034037      -273.0400
   6   2.0000     -10.032315      -272.9932
   7   2.0000     -10.019569      -272.6463
   8   2.0000      -1.071853       -29.1666
   9   2.0000      -0.973633       -26.4939
  10   2.0000      -0.773403       -21.0454
  11   2.0000      -0.743155       -20.2223
  12   2.0000      -0.677656       -18.4400
  13   2.0000      -0.617947       -16.8152
  14   2.0000      -0.565290       -15.3823
  15   2.0000      -0.529600       -14.4112
  16   2.0000      -0.469732       -12.7821
  17   2.0000      -0.464428       -12.6377
  18   2.0000      -0.436307       -11.8725
  19   2.0000      -0.424284       -11.5454
  20   2.0000      -0.407873       -11.0988
  21   2.0000      -0.379541       -10.3278
  22   2.0000      -0.378422       -10.2974
  23   2.0000      -0.366704        -9.9785
  24   2.0000      -0.361230        -9.8296
  25   2.0000      -0.334677        -9.1070
  26   2.0000      -0.323699        -8.8083
  27   2.0000      -0.309469        -8.4211
  28   2.0000      -0.308100        -8.3838
  29   2.0000      -0.306678        -8.3451
  30   2.0000      -0.271552        -7.3893
  31   2.0000      -0.234090        -6.3699
  32   0.0000      -0.015044        -0.4094
  33   0.0000       0.073246         1.9931
  34   0.0000       0.096454         2.6246
  35   0.0000       0.105736         2.8772
  36   0.0000       0.124802         3.3960

MULLIKEN ATOMIC CHARGES
-----------------------
   0 C :   -0.493573
   1 C :   -0.218003
   2 C :   -0.300845
   3 C :    0.330573
   4 O :   -0.419231
   5 O :   -0.157283
   6 C :   -0.154317
   7 C :   -0.441537
   8 H :    0.148606
   9 H :    0.146670
  10 H :    0.155611
  11 H :    0.162063
  12 H :    0.144630
  13 H :    0.165465
  14 H :    0.164112
  15 H :    0.153212
  16 H :    0.161614
  17 H :    0.147271
  18 H :    0.152651
  19 H :    0.152310
Sum of atomic charges:    0.0000000

LOEWDIN ATOMIC CHARGES
----------------------
   0 C :   -0.416870
   1 C :   -0.292761
   2 C :   -0.232751
   3 C :    0.351243
   4 O :   -0.430646
   5 O :   -0.598877
   6 C :    0.033050
   7 C :   -0.386741
   8 H :    0.152772
   9 H :    0.150717
  10 H :    0.155451
  11 H :    0.167222
  12 H :    0.152817
  13 H :    0.181283
  14 H :    0.176578
  15 H :    0.177770
  16 H :    0.181464
  17 H :    0.159507
  18 H :    0.159363
  19 H :    0.159408

  Mayer bond orders larger than 0.100000
B(  0-C ,  1-C ) :   0.9043 B(  0-C ,  8-H ) :   0.9688 B(  0-C ,  9-H ) :   0.9816
B(  0-C , 10-H ) :   0.9731 B(  1-C ,  2-C ) :   0.8872 B(  1-C , 11-H ) :   0.9683
B(  1-C , 12-H ) :   0.9659 B(  2-C ,  3-C ) :   0.9342 B(  2-C , 13-H ) :   0.9389
B(  2-C , 14-H ) :   1.0088 B(  3-C ,  4-O ) :   1.8143 B(  3-C ,  5-O ) :   1.0699
B(  5-O ,  6-C ) :   0.8053 B(  6-C ,  7-C ) :   0.9393 B(  6-C , 15-H ) :   0.9495
B(  6-C , 16-H ) :   0.9571 B(  7-C , 17-H ) :   0.9683 B(  7-C , 18-H ) :   0.9736
B(  7-C , 19-H ) :   0.9707

Dispersion correction           -0.005046016
FINAL SINGLE POINT ENERGY      -386.236573970631

DIPOLE MOMENT
-------------

Method             : SCF
Type of density    : Electron Density
Multiplicity       :   1
Irrep              :   0
Energy             :  -386.2431748249853740 Eh
Relativity type    :
Basis              : AO
                                X                 Y                 Z
Electronic contribution:      1.337203633       5.150315450      -0.664288142
Nuclear contribution   :     -1.098557770      -5.816459715       0.269550826
                        -----------------------------------------
Total Dipole Moment    :      0.238645863      -0.666144265      -0.394737316
                        -----------------------------------------
Magnitude (a.u.)       :      0.810257724
Magnitude (Debye)      :      2.059511462

Rotational constants in cm-1:             0.123476             0.035549             0.032126
Rotational constants in MHz :          3701.710387          1065.745708           963.105430

                             ****ORCA TERMINATED NORMALLY****
TOTAL RUN TIME: 0 days 0 hours 0 minutes 33 seconds 443 msec
