                         Program Version 6.0.0  -   RELEASE  -
|  1> ! r2scan-3c def2/J RI DEFGRID2 scfconv6 printgap
|  2> %output
|  3>     printlevel normal
|  4> end
|  5> %cpcm
|  6>     smd true
|  7>     smdsolvent "water"
|  8> end
|  9> * xyz 0 1
| 10> C -2.3359234728 -1.2182736012 0.7436643929
| 11> C -2.5287149519 0.0496068587 -0.0794526669
| 12> C -1.323509234 0.3229033945 -0.9859790224
| 13> C -0.1016230291 0.6437427535 -0.1646644971
| 14> O -0.0303627346 1.5325524494 0.6599373449
| 15> O 0.9074573349 -0.169010255 -0.4424640114
| 16> C 2.1425353907 0.0221108022 0.2680811475
| 17> C 3.0783149653 -1.1143489737 -0.0951590358
| 18> H -3.2127245332 -1.4087701712 1.356712204
| 19> H -2.1737778804 -2.0748144347 0.0938125569
| 20> H -1.4745019855 -1.1172456992 1.4013695266
| 21> H -2.6643266154 0.9037006393 0.5867827212
| 22> H -3.4197752829 -0.047664704 -0.7000623194
| 23> H -1.5331123594 1.1895287849 -1.6149576995
| 24> H -1.103761964 -0.5389340674 -1.6146637549
| 25> H 2.5558966367 0.9952465293 -0.0165719056
| 26> H 1.9248808711 0.0460211414 1.3411008112
| 27> H 4.0209978453 -0.9842592543 0.4259176139
| 28> H 2.6382557905 -2.0651522665 0.1906222658
| 29> H 3.2571243528 -1.1190226509 -1.1661827318
| 30> *
| 31>
| 32>                          ****END OF INPUT****

CARTESIAN COORDINATES (ANGSTROEM)
---------------------------------
  C     -2.335923   -1.218274    0.743664
  C     -2.528715    0.049607   -0.079453
  C     -1.323509    0.322903   -0.985979
  C     -0.101623    0.643743   -0.164664
  O     -0.030363    1.532552    0.659937
  O      0.907457   -0.169010   -0.442464
  C      2.142535    0.022111    0.268081
  C      3.078315   -1.114349   -0.095159
  H     -3.212725   -1.408770    1.356712
  H     -2.173778   -2.074814    0.093813
  H     -1.474502   -1.117246    1.401370
  H     -2.664327    0.903701    0.586783
  H     -3.419775   -0.047665   -0.700062
  H     -1.533112    1.189529   -1.614958
  H     -1.103762   -0.538934   -1.614664
  H      2.555897    0.995247   -0.016572
  H      1.924881    0.046021    1.341101
  H      4.020998   -0.984259    0.425918
  H      2.638256   -2.065152    0.190622
  H      3.257124   -1.119023   -1.166183

 Total Charge           Charge          ....    0
 Multiplicity           Mult            ....    1
 Number of Electrons    NEL             ....   64
 Basis Dimension        Dim             ....  222

ORBITAL ENERGIES
----------------

  NO   OCC          E(Eh)            E(eV)
   0   2.0000     -19.003520      -517.1121
   1   2.0000     -18.943454      -515.4776
   2   2.0000     -10.161836      -276.5176
   3   2.0000     -10.083916      -274.3973
   4   2.0000     -10.035194      -273.0715
   5   2.0000     -10.028317      -272.8844
   6   2.0000     -10.018920      -272.6287
   7   2.0000     -10.011622      -272.4301
   8   2.0000      -1.079908       -29.3858
   9   2.0000      -0.988416       -26.8962
  10   2.0000      -0.769632       -20.9428
  11   2.0000      -0.735759       -20.0210
  12   2.0000      -0.672122       -18.2894
  13   2.0000      -0.611701       -16.6452
  14   2.0000      -0.559161       -15.2155
  15   2.0000      -0.528975       -14.3941
  16   2.0000      -0.472291       -12.8517
  17   2.0000      -0.464343       -12.6354
  18   2.0000      -0.445325       -12.1179
  19   2.0000      -0.420735       -11.4488
  20   2.0000      -0.405635       -11.0379
  21   2.0000      -0.377284       -10.2664
  22   2.0000      -0.369196       -10.0463
  23   2.0000      -0.361371        -9.8334
  24   2.0000      -0.355911        -9.6848
  25   2.0000      -0.329724        -8.9723
  26   2.0000      -0.320653        -8.7254
  27   2.0000      -0.304590        -8.2883
  28   2.0000      -0.304203        -8.2778
  29   2.0000      -0.303493        -8.2585
  30   2.0000      -0.278339        -7.5740
  31   2.0000      -0.251741        -6.8502
  32   0.0000      -0.023839        -0.6487
  33   0.0000       0.075998         2.0680
  34   0.0000       0.104461         2.8425
  35   0.0000       0.115530         3.1437
  36   0.0000       0.132278         3.5995

MULLIKEN ATOMIC CHARGES
-----------------------
   0 C :   -0.529755
   1 C :   -0.224873
   2 C :   -0.316436
   3 C :    0.376091
   4 O :   -0.506694
   5 O :   -0.174499
   6 C :   -0.157528
   7 C :   -0.490200
   8 H :    0.161472
   9 H :    0.162703
  10 H :    0.162575
  11 H :    0.155679
  12 H :    0.163950
  13 H :    0.193366
  14 H :    0.179971
  15 H :    0.172448
  16 H :    0.172362
  17 H :    0.168948
  18 H :    0.165582
  19 H :    0.164839
Sum of atomic charges:    0.0000000

LOEWDIN ATOMIC CHARGES
----------------------
   0 C :   -0.423861
   1 C :   -0.292027
   2 C :   -0.229660
   3 C :    0.361448
   4 O :   -0.492667
   5 O :   -0.599976
   6 C :    0.035436
   7 C :   -0.389633
   8 H :    0.156231
   9 H :    0.155958
  10 H :    0.156156
  11 H :    0.163258
  12 H :    0.160458
  13 H :    0.191162
  14 H :    0.184408
  15 H :    0.184135
  16 H :    0.185577
  17 H :    0.168258
  18 H :    0.162628
  19 H :    0.162712

  Mayer bond orders larger than 0.100000
B(  0-C ,  1-C ) :   0.8968 B(  0-C ,  8-H ) :   0.9656 B(  0-C ,  9-H ) :   0.9780
B(  0-C , 10-H ) :   0.9706 B(  1-C ,  2-C ) :   0.8739 B(  1-C , 11-H ) :   0.9725
B(  1-C , 12-H ) :   0.9617 B(  2-C ,  3-C ) :   0.9369 B(  2-C , 13-H ) :   0.9316
B(  2-C , 14-H ) :   0.9982 B(  3-C ,  4-O ) :   1.7433 B(  3-C ,  5-O ) :   1.0964
B(  5-O ,  6-C ) :   0.7920 B(  6-C ,  7-C ) :   0.9411 B(  6-C , 15-H ) :   0.9412
B(  6-C , 16-H ) :   0.9499 B(  7-C , 17-H ) :   0.9617 B(  7-C , 18-H ) :   0.9719
B(  7-C , 19-H ) :   0.9685

Dispersion correction           -0.005046016
FINAL SINGLE POINT ENERGY      -386.242224951027

DIPOLE MOMENT
-------------

Method             : SCF
Type of density    : Electron Density
Multiplicity       :   1
Irrep              :   0
Energy             :  -386.2488258053820118 Eh
Relativity type    :
Basis              : AO
                                X                 Y                 Z
Electronic contribution:      1.395486515       4.882672315      -0.877988768
Nuclear contribution   :     -1.098557770      -5.816459715       0.269550826
                        -----------------------------------------
Total Dipole Moment    :      0.296928744      -0.933787401      -0.608437942
                        -----------------------------------------
Magnitude (a.u.)       :      1.153395994
Magnitude (Debye)      :      2.931699630

Rotational constants in cm-1:             0.123476             0.035549             0.032126
Rotational constants in MHz :          3701.710387          1065.745708           963.105430

                             ****ORCA TERMINATED NORMALLY****
TOTAL RUN TIME: 0 days 0 hours 0 minutes 40 seconds 54 msec
