                         Program Version 6.0.0  -   RELEASE  -
|  1> ! r2scan-3c def2/J RI DEFGRID2 scfconv6 printgap
|  2> %output
|  3>     printlevel normal
|  4> end
|  5> * xyz 0 1
|  6> C -3.8976743643 -0.29373678 -0.3285812437
|  7> C -2.7023839627 0.0400830957 0.5558173125
|  8> C -1.3855507871 -0.1079920421 -0.201995455
|  9> C -0.1810486122 0.1984169319 0.6877995526
| 10> C 1.1079200894 0.186188444 -0.0901153291
| 11> O 1.2366192385 0.5331029651 -1.244893547
| 12> O 2.1219839308 -0.24781175 0.6529721742
| 13> C 3.4181589562 -0.2823479543 0.0487314523
| 14> H -4.8259562678 -0.1769561991 0.2245515039
| 15> H -3.9261544007 0.3647411507 -1.1935546903
| 16> H -3.8345096621 -1.3198968084 -0.6830566435
| 17> H -2.796111483 1.0648206918 0.9202582778
| 18> H -2.695599841 -0.6236092691 1.4225856744
| 19> H -1.3698749296 0.5686892079 -1.0587749277
| 20> H -1.2987427161 -1.1259168229 -0.587702793
| 21> H -0.0971515875 -0.5102473009 1.511294642
| 22> H -0.2880503218 1.2005127766 1.1112826145
| 23> H 3.4053527416 -0.9390948009 -0.8217931528
| 24> H 4.0876658729 -0.6606288709 0.8145019776
| 25> H 3.708936132 0.719968091 -0.2674671569
| 26> *
| 27>
| 28>                          ****END OF INPUT****

CARTESIAN COORDINATES (ANGSTROEM)
---------------------------------
  C     -3.897674   -0.293737   -0.328581
  C     -2.702384    0.040083    0.555817
  C     -1.385551   -0.107992   -0.201995
  C     -0.181049    0.198417    0.687800
  C      1.107920    0.186188   -0.090115
  O      1.236619    0.533103   -1.244894
  O      2.121984   -0.247812    0.652972
  C      3.418159   -0.282348    0.048731
  H     -4.825956   -0.176956    0.224552
  H     -3.926154    0.364741   -1.193555
  H     -3.834510   -1.319897   -0.683057
  H     -2.796111    1.064821    0.920258
  H     -2.695600   -0.623609    1.422586
  H     -1.369875    0.568689   -1.058775
  H     -1.298743   -1.125917   -0.587703
  H     -0.097152   -0.510247    1.511295
  H     -0.288050    1.200513    1.111283
  H      3.405353   -0.939095   -0.821793
  H      4.087666   -0.660629    0.814502
  H      3.708936    0.719968   -0.267467

 Total Charge           Charge          ....    0
 Multiplicity           Mult            ....    1
 Number of Electrons    NEL             ....   64
 Basis Dimension        Dim             ....  222

ORBITAL ENERGIES
----------------

  NO   OCC          E(Eh)            E(eV)
   0   2.0000     -18.998949      -516.9877
   1   2.0000     -18.929661      -515.1023
   2   2.0000     -10.152428      -276.2616
   3   2.0000     -10.086451      -274.4663
   4   2.0000     -10.042397      -273.2675
   5   2.0000     -10.029154      -272.9072
   6   2.0000     -10.028033      -272.8767
   7   2.0000     -10.016982      -272.5760
   8   2.0000      -1.072889       -29.1948
   9   2.0000      -0.976459       -26.5708
  10   2.0000      -0.776509       -21.1299
  11   2.0000      -0.728784       -19.8312
  12   2.0000      -0.686359       -18.6768
  13   2.0000      -0.615327       -16.7439
  14   2.0000      -0.552967       -15.0470
  15   2.0000      -0.529406       -14.4059
  16   2.0000      -0.466352       -12.6901
  17   2.0000      -0.462330       -12.5806
  18   2.0000      -0.444720       -12.1014
  19   2.0000      -0.436259       -11.8712
  20   2.0000      -0.403257       -10.9732
  21   2.0000      -0.394147       -10.7253
  22   2.0000      -0.387225       -10.5369
  23   2.0000      -0.360642        -9.8136
  24   2.0000      -0.348749        -9.4899
  25   2.0000      -0.326802        -8.8927
  26   2.0000      -0.321441        -8.7469
  27   2.0000      -0.308602        -8.3975
  28   2.0000      -0.299864        -8.1597
  29   2.0000      -0.297778        -8.1030
  30   2.0000      -0.274625        -7.4729
  31   2.0000      -0.237276        -6.4566
  32   0.0000      -0.014743        -0.4012
  33   0.0000       0.068094         1.8529
  34   0.0000       0.093883         2.5547
  35   0.0000       0.101553         2.7634
  36   0.0000       0.118865         3.2345

MULLIKEN ATOMIC CHARGES
-----------------------
   0 C :   -0.467325
   1 C :   -0.225619
   2 C :   -0.281142
   3 C :   -0.313554
   4 C :    0.373106
   5 O :   -0.422684
   6 O :   -0.185837
   7 C :   -0.296588
   8 H :    0.147260
   9 H :    0.144259
  10 H :    0.142124
  11 H :    0.136505
  12 H :    0.133684
  13 H :    0.168805
  14 H :    0.138950
  15 H :    0.166276
  16 H :    0.168986
  17 H :    0.161719
  18 H :    0.150482
  19 H :    0.160594
Sum of atomic charges:    0.0000000

LOEWDIN ATOMIC CHARGES
----------------------
   0 C :   -0.422896
   1 C :   -0.314588
   2 C :   -0.287632
   3 C :   -0.228977
   4 C :    0.357087
   5 O :   -0.428057
   6 O :   -0.604498
   7 C :   -0.045240
   8 H :    0.150357
   9 H :    0.151278
  10 H :    0.150215
  11 H :    0.151229
  12 H :    0.150862
  13 H :    0.170637
  14 H :    0.158938
  15 H :    0.179224
  16 H :    0.182945
  17 H :    0.176887
  18 H :    0.175987
  19 H :    0.176243

  Mayer bond orders larger than 0.100000
B(  0-C ,  1-C ) :   0.9024 B(  0-C ,  8-H ) :   0.9755 B(  0-C ,  9-H ) :   0.9827
B(  0-C , 10-H ) :   0.9821 B(  1-C ,  2-C ) :   0.9102 B(  1-C , 11-H ) :   0.9797
B(  1-C , 12-H ) :   0.9658 B(  2-C ,  3-C ) :   0.9245 B(  2-C , 13-H ) :   0.9697
B(  2-C , 14-H ) :   0.9680 B(  3-C ,  4-C ) :   0.9801 B(  3-C , 15-H ) :   0.9777
B(  3-C , 16-H ) :   0.9439 B(  4-C ,  5-O ) :   1.8104 B(  4-C ,  6-O ) :   1.0697
B(  6-O ,  7-C ) :   0.8498 B(  7-C , 17-H ) :   0.9635 B(  7-C , 18-H ) :   0.9696
B(  7-C , 19-H ) :   0.9619

Dispersion correction           -0.004858863
FINAL SINGLE POINT ENERGY      -386.231487277847

DIPOLE MOMENT
-------------

Method             : SCF
Type of density    : Electron Density
Multiplicity       :   1
Irrep              :   0
Energy             :  -386.2385433207220444 Eh
Relativity type    :
Basis              : AO
                                X                 Y                 Z
Electronic contribution:      9.396533048       1.105317755      -0.634087523
Nuclear contribution   :     -9.266377706      -1.344495132       1.297268513
                        -----------------------------------------
Total Dipole Moment    :      0.130155342      -0.239177377       0.663180990
                        -----------------------------------------
Magnitude (a.u.)       :      0.716906728
Magnitude (Debye)      :      1.822232087

Rotational constants in cm-1:             0.236319             0.024957             0.023520
Rotational constants in MHz :          7084.653810           748.198477           705.120355

                             ****ORCA TERMINATED NORMALLY****
TOTAL RUN TIME: 0 days 0 hours 0 minutes 25 seconds 226 msec
