                         Program Version 6.0.0  -   RELEASE  -
|  1> ! r2scan-3c def2/J RI DEFGRID2 scfconv6 printgap
|  2> %output
|  3>     printlevel normal
|  4> end
|  5> %cpcm
|  6>     smd true
|  7>     smdsolvent "water"
|  8> end
|  9> * xyz 0 1
| 10> C -3.8976743643 -0.29373678 -0.3285812437
| 11> C -2.7023839627 0.0400830957 0.5558173125
| 12> C -1.3855507871 -0.1079920421 -0.201995455
| 13> C -0.1810486122 0.1984169319 0.6877995526
| 14> C 1.1079200894 0.186188444 -0.0901153291
| 15> O 1.2366192385 0.5331029651 -1.244893547
| 16> O 2.1219839308 -0.24781175 0.6529721742
| 17> C 3.4181589562 -0.2823479543 0.0487314523
| 18> H -4.8259562678 -0.1769561991 0.2245515039
| 19> H -3.9261544007 0.3647411507 -1.1935546903
| 20> H -3.8345096621 -1.3198968084 -0.6830566435
| 21> H -2.796111483 1.0648206918 0.9202582778
| 22> H -2.695599841 -0.6236092691 1.4225856744
| 23> H -1.3698749296 0.5686892079 -1.0587749277
| 24> H -1.2987427161 -1.1259168229 -0.587702793
| 25> H -0.0971515875 -0.5102473009 1.511294642
| 26> H -0.2880503218 1.2005127766 1.1112826145
| 27> H 3.4053527416 -0.9390948009 -0.8217931528
| 28> H 4.0876658729 -0.6606288709 0.8145019776
| 29> H 3.708936132 0.719968091 -0.2674671569
| 30> *
| 31>
| 32>                          ****END OF INPUT****

CARTESIAN COORDINATES (ANGSTROEM)
---------------------------------
  C     -3.897674   -0.293737   -0.328581
  C     -2.702384    0.040083    0.555817
  C     -1.385551   -0.107992   -0.201995
  C     -0.181049    0.198417    0.687800
  C      1.107920    0.186188   -0.090115
  O      1.236619    0.533103   -1.244894
  O      2.121984   -0.247812    0.652972
  C      3.418159   -0.282348    0.048731
  H     -4.825956   -0.176956    0.224552
  H     -3.926154    0.364741   -1.193555
  H     -3.834510   -1.319897   -0.683057
  H     -2.796111    1.064821    0.920258
  H     -2.695600   -0.623609    1.422586
  H     -1.369875    0.568689   -1.058775
  H     -1.298743   -1.125917   -0.587703
  H     -0.097152   -0.510247    1.511295
  H     -0.288050    1.200513    1.111283
  H      3.405353   -0.939095   -0.821793
  H      4.087666   -0.660629    0.814502
  H      3.708936    0.719968   -0.267467

 Total Charge           Charge          ....    0
 Multiplicity           Mult            ....    1
 Number of Electrons    NEL             ....   64
 Basis Dimension        Dim             ....  222

ORBITAL ENERGIES
----------------

  NO   OCC          E(Eh)            E(eV)
   0   2.0000     -19.004193      -517.1304
   1   2.0000     -18.944782      -515.5137
   2   2.0000     -10.162327      -276.5310
   3   2.0000     -10.076286      -274.1897
   4   2.0000     -10.035780      -273.0875
   5   2.0000     -10.023149      -272.7437
   6   2.0000     -10.018480      -272.6167
   7   2.0000     -10.008321      -272.3403
   8   2.0000      -1.079680       -29.3796
   9   2.0000      -0.989447       -26.9242
  10   2.0000      -0.770334       -20.9618
  11   2.0000      -0.723583       -19.6897
  12   2.0000      -0.679998       -18.5037
  13   2.0000      -0.608553       -16.5596
  14   2.0000      -0.545846       -14.8532
  15   2.0000      -0.527562       -14.3557
  16   2.0000      -0.467834       -12.7304
  17   2.0000      -0.461442       -12.5565
  18   2.0000      -0.451693       -12.2912
  19   2.0000      -0.433215       -11.7884
  20   2.0000      -0.396966       -10.8020
  21   2.0000      -0.391063       -10.6414
  22   2.0000      -0.380640       -10.3577
  23   2.0000      -0.358127        -9.7451
  24   2.0000      -0.344733        -9.3807
  25   2.0000      -0.326963        -8.8971
  26   2.0000      -0.316199        -8.6042
  27   2.0000      -0.301343        -8.1999
  28   2.0000      -0.294419        -8.0116
  29   2.0000      -0.289338        -7.8733
  30   2.0000      -0.281389        -7.6570
  31   2.0000      -0.253144        -6.8884
  32   0.0000      -0.022083        -0.6009
  33   0.0000       0.072804         1.9811
  34   0.0000       0.101337         2.7575
  35   0.0000       0.110893         3.0175
  36   0.0000       0.129711         3.5296

MULLIKEN ATOMIC CHARGES
-----------------------
   0 C :   -0.511271
   1 C :   -0.241580
   2 C :   -0.290925
   3 C :   -0.330551
   4 C :    0.420497
   5 O :   -0.508089
   6 O :   -0.202979
   7 C :   -0.330946
   8 H :    0.157895
   9 H :    0.153594
  10 H :    0.154078
  11 H :    0.149848
  12 H :    0.147035
  13 H :    0.158331
  14 H :    0.157021
  15 H :    0.182855
  16 H :    0.200947
  17 H :    0.178209
  18 H :    0.178459
  19 H :    0.177571
Sum of atomic charges:    0.0000000

LOEWDIN ATOMIC CHARGES
----------------------
   0 C :   -0.431732
   1 C :   -0.313552
   2 C :   -0.289762
   3 C :   -0.226039
   4 C :    0.368704
   5 O :   -0.489226
   6 O :   -0.607236
   7 C :   -0.043028
   8 H :    0.153064
   9 H :    0.152734
  10 H :    0.152723
  11 H :    0.155173
  12 H :    0.155236
  13 H :    0.165623
  14 H :    0.162770
  15 H :    0.187343
  16 H :    0.194854
  17 H :    0.182360
  18 H :    0.188200
  19 H :    0.181791

  Mayer bond orders larger than 0.100000
B(  0-C ,  1-C ) :   0.8879 B(  0-C ,  8-H ) :   0.9725 B(  0-C ,  9-H ) :   0.9815
B(  0-C , 10-H ) :   0.9801 B(  1-C ,  2-C ) :   0.9149 B(  1-C , 11-H ) :   0.9792
B(  1-C , 12-H ) :   0.9660 B(  2-C ,  3-C ) :   0.9134 B(  2-C , 13-H ) :   0.9699
B(  2-C , 14-H ) :   0.9661 B(  3-C ,  4-C ) :   0.9847 B(  3-C , 15-H ) :   0.9680
B(  3-C , 16-H ) :   0.9323 B(  4-C ,  5-O ) :   1.7507 B(  4-C ,  6-O ) :   1.0937
B(  6-O ,  7-C ) :   0.8301 B(  7-C , 17-H ) :   0.9579 B(  7-C , 18-H ) :   0.9595
B(  7-C , 19-H ) :   0.9565

Dispersion correction           -0.004858863
FINAL SINGLE POINT ENERGY      -386.236298285850

DIPOLE MOMENT
-------------

Method             : SCF
Type of density    : Electron Density
Multiplicity       :   1
Irrep              :   0
Energy             :  -386.2433543287251609 Eh
Relativity type    :
Basis              : AO
                                X                 Y                 Z
Electronic contribution:      9.438867884       1.008306486      -0.282101329
Nuclear contribution   :     -9.266377706      -1.344495132       1.297268513
                        -----------------------------------------
Total Dipole Moment    :      0.172490178      -0.336188646       1.015167183
                        -----------------------------------------
Magnitude (a.u.)       :      1.083208234
Magnitude (Debye)      :      2.753296522

Rotational constants in cm-1:             0.236319             0.024957             0.023520
Rotational constants in MHz :          7084.653810           748.198477           705.120355

                             ****ORCA TERMINATED NORMALLY****
TOTAL RUN TIME: 0 days 0 hours 0 minutes 32 seconds 565 msec
