                         Program Version 6.0.0  -   RELEASE  -
|  1> ! pbe def2-sv(p) def2/J RI DEFGRID1 loosescf d4 GCP(DFT/SV(P)) printgap
|  2> %output
|  3>     printlevel normal
|  4> end
|  5> * xyz 0 1
|  6> C -0.0003294203 1.3105029307 0.000690882
|  7> C -0.9330406498 0.4728026063 -0.8564613162
|  8> Cl -2.0864233121 -0.461295533 0.163340204
|  9> C 0.9324837111 0.471524234 0.8565907704
| 10> Cl 2.086776506 -0.4608202767 -0.1636982721
| 11> H 0.5843659958 1.9473014676 -0.6645950431
| 12> H -0.5852485142 1.9459557268 0.667065356
| 13> H -1.5415310006 1.0982449175 -1.5055051213
| 14> H -0.3809066571 -0.2598042965 -1.4427903903
| 15> H 0.3809284236 -0.2621639779 1.4418968207
| 16> H 1.5405305928 1.0958224227 1.5067477154
| 17> *
| 18>
| 19>                          ****END OF INPUT****

CARTESIAN COORDINATES (ANGSTROEM)
---------------------------------
  C     -0.000329    1.310503    0.000691
  C     -0.933041    0.472803   -0.856461
  Cl    -2.086423   -0.461296    0.163340
  C      0.932484    0.471524    0.856591
  Cl     2.086777   -0.460820   -0.163698
  H      0.584366    1.947301   -0.664595
  H     -0.585249    1.945956    0.667065
  H     -1.541531    1.098245   -1.505505
  H     -0.380907   -0.259804   -1.442790
  H      0.380928   -0.262164    1.441897
  H      1.540531    1.095822    1.506748

 Total Charge           Charge          ....    0
 Multiplicity           Mult            ....    1
 Number of Electrons    NEL             ....   58
 Basis Dimension        Dim             ....   90

ORBITAL ENERGIES
----------------

  NO   OCC          E(Eh)            E(eV)
   0   2.0000    -100.624914     -2738.1431
   1   2.0000    -100.624890     -2738.1425
   2   2.0000      -9.945583      -270.6331
   3   2.0000      -9.945518      -270.6313
   4   2.0000      -9.912518      -269.7333
   5   2.0000      -9.160412      -249.2675
   6   2.0000      -9.160390      -249.2669
   7   2.0000      -6.991962      -190.2610
   8   2.0000      -6.991949      -190.2606
   9   2.0000      -6.980222      -189.9415
  10   2.0000      -6.980211      -189.9412
  11   2.0000      -6.979942      -189.9339
  12   2.0000      -6.979929      -189.9335
  13   2.0000      -0.795098       -21.6357
  14   2.0000      -0.766809       -20.8659
  15   2.0000      -0.685391       -18.6504
  16   2.0000      -0.604250       -16.4425
  17   2.0000      -0.531008       -14.4495
  18   2.0000      -0.444771       -12.1028
  19   2.0000      -0.439985       -11.9726
  20   2.0000      -0.398940       -10.8557
  21   2.0000      -0.375838       -10.2271
  22   2.0000      -0.355287        -9.6678
  23   2.0000      -0.342870        -9.3300
  24   2.0000      -0.325909        -8.8684
  25   2.0000      -0.259163        -7.0522
  26   2.0000      -0.255498        -6.9525
  27   2.0000      -0.249353        -6.7852
  28   2.0000      -0.246276        -6.7015
  29   0.0000       0.001950         0.0531
  30   0.0000       0.010118         0.2753
  31   0.0000       0.038585         1.0499
  32   0.0000       0.067609         1.8397
  33   0.0000       0.084688         2.3045

MULLIKEN ATOMIC CHARGES
-----------------------
   0 C :   -0.150392
   1 C :   -0.173999
   2 Cl:   -0.152766
   3 C :   -0.173918
   4 Cl:   -0.152814
   5 H :    0.112792
   6 H :    0.112790
   7 H :    0.143133
   8 H :    0.146070
   9 H :    0.146046
  10 H :    0.143058
Sum of atomic charges:    0.0000000

LOEWDIN ATOMIC CHARGES
----------------------
   0 C :   -0.269693
   1 C :   -0.274662
   2 Cl:    0.024643
   3 C :   -0.274731
   4 Cl:    0.024607
   5 H :    0.132129
   6 H :    0.132131
   7 H :    0.128201
   8 H :    0.124598
   9 H :    0.124586
  10 H :    0.128191

  Mayer bond orders larger than 0.100000
B(  0-C ,  1-C ) :   1.1016 B(  0-C ,  3-C ) :   1.1016 B(  0-C ,  5-H ) :   0.9043
B(  0-C ,  6-H ) :   0.9043 B(  1-C ,  2-Cl) :   1.0256 B(  1-C ,  7-H ) :   0.9311
B(  1-C ,  8-H ) :   0.9159 B(  3-C ,  4-Cl) :   1.0256 B(  3-C ,  9-H ) :   0.9159
B(  3-C , 10-H ) :   0.9311

Dispersion correction           -0.009437861
FINAL SINGLE POINT ENERGY     -1037.363936167136

DIPOLE MOMENT
-------------

Method             : SCF
Type of density    : Electron Density
Multiplicity       :   1
Irrep              :   0
Energy             : -1037.4002765029424609 Eh
Relativity type    :
Basis              : AO
                                X                 Y                 Z
Electronic contribution:      0.001845126      -5.699123552      -0.002708107
Nuclear contribution   :     -0.002220147       6.458934085       0.003125628
                        -----------------------------------------
Total Dipole Moment    :     -0.000375021       0.759810533       0.000417521
                        -----------------------------------------
Magnitude (a.u.)       :      0.759810740
Magnitude (Debye)      :      1.931285419

Rotational constants in cm-1:             0.209570             0.046240             0.043600
Rotational constants in MHz :          6282.744923          1386.243600          1307.084440

                             ****ORCA TERMINATED NORMALLY****
TOTAL RUN TIME: 0 days 0 hours 0 minutes 5 seconds 627 msec
