                         Program Version 6.0.0  -   RELEASE  -
|  1> ! pbe def2-sv(p) def2/J RI DEFGRID1 loosescf d4 GCP(DFT/SV(P)) printgap
|  2> %output
|  3>     printlevel normal
|  4> end
|  5> * xyz 0 1
|  6> C -3.4009686842 -1.0288040232 0.1891100883
|  7> C -2.0429127085 -0.4417205173 0.5510502235
|  8> C -1.2904035407 0.0297899154 -0.7019851632
|  9> C 0.0185219308 0.6500596906 -0.2931429137
| 10> O 0.1383731289 1.766910315 0.1695379543
| 11> O 1.0290269218 -0.1884808946 -0.4640453458
| 12> C 2.3520477452 0.2125672613 -0.0658145667
| 13> C 3.0584507877 -0.9763668749 0.5608136023
| 14> H -3.9163944724 -1.3595480362 1.0865477588
| 15> H -4.0173218444 -0.2846416753 -0.3085839485
| 16> H -3.282143942 -1.8803831549 -0.4756829691
| 17> H -1.4423575234 -1.1937202745 1.0663721094
| 18> H -2.1709449094 0.4079889812 1.2248481152
| 19> H -1.8857863852 0.7830274646 -1.2181085756
| 20> H -1.094918913 -0.8137026223 -1.3622920655
| 21> H 2.8728549929 0.5502380068 -0.9665051696
| 22> H 2.2651576427 1.0516638223 0.6315653957
| 23> H 4.0747026278 -0.6947363315 0.8161507924
| 24> H 2.5397921819 -1.2930169115 1.4614152871
| 25> H 3.080707281 -1.8047000474 -0.1411360282
| 26> *
| 27>
| 28>                          ****END OF INPUT****

CARTESIAN COORDINATES (ANGSTROEM)
---------------------------------
  C     -3.400969   -1.028804    0.189110
  C     -2.042913   -0.441721    0.551050
  C     -1.290404    0.029790   -0.701985
  C      0.018522    0.650060   -0.293143
  O      0.138373    1.766910    0.169538
  O      1.029027   -0.188481   -0.464045
  C      2.352048    0.212567   -0.065815
  C      3.058451   -0.976367    0.560814
  H     -3.916394   -1.359548    1.086548
  H     -4.017322   -0.284642   -0.308584
  H     -3.282144   -1.880383   -0.475683
  H     -1.442358   -1.193720    1.066372
  H     -2.170945    0.407989    1.224848
  H     -1.885786    0.783027   -1.218109
  H     -1.094919   -0.813703   -1.362292
  H      2.872855    0.550238   -0.966505
  H      2.265158    1.051664    0.631565
  H      4.074703   -0.694736    0.816151
  H      2.539792   -1.293017    1.461415
  H      3.080707   -1.804700   -0.141136

 Total Charge           Charge          ....    0
 Multiplicity           Mult            ....    1
 Number of Electrons    NEL             ....   64
 Basis Dimension        Dim             ....  136

ORBITAL ENERGIES
----------------

  NO   OCC          E(Eh)            E(eV)
   0   2.0000     -18.795383      -511.4484
   1   2.0000     -18.729394      -509.6527
   2   2.0000     -10.000178      -272.1187
   3   2.0000      -9.943511      -270.5767
   4   2.0000      -9.894792      -269.2510
   5   2.0000      -9.893509      -269.2161
   6   2.0000      -9.888382      -269.0766
   7   2.0000      -9.879574      -268.8369
   8   2.0000      -1.001543       -27.2534
   9   2.0000      -0.905140       -24.6301
  10   2.0000      -0.728126       -19.8133
  11   2.0000      -0.699379       -19.0311
  12   2.0000      -0.638915       -17.3858
  13   2.0000      -0.581897       -15.8342
  14   2.0000      -0.533303       -14.5119
  15   2.0000      -0.502945       -13.6858
  16   2.0000      -0.445913       -12.1339
  17   2.0000      -0.436862       -11.8876
  18   2.0000      -0.426223       -11.5981
  19   2.0000      -0.396908       -10.8004
  20   2.0000      -0.390375       -10.6226
  21   2.0000      -0.364268        -9.9122
  22   2.0000      -0.358637        -9.7590
  23   2.0000      -0.355700        -9.6791
  24   2.0000      -0.344614        -9.3774
  25   2.0000      -0.322085        -8.7644
  26   2.0000      -0.315704        -8.5907
  27   2.0000      -0.300811        -8.1855
  28   2.0000      -0.297071        -8.0837
  29   2.0000      -0.286902        -7.8070
  30   2.0000      -0.252146        -6.8612
  31   2.0000      -0.214164        -5.8277
  32   0.0000      -0.016213        -0.4412
  33   0.0000       0.038073         1.0360
  34   0.0000       0.049873         1.3571
  35   0.0000       0.074653         2.0314
  36   0.0000       0.080733         2.1968

MULLIKEN ATOMIC CHARGES
-----------------------
   0 C :   -0.243595
   1 C :   -0.238360
   2 C :   -0.122310
   3 C :    0.112179
   4 O :   -0.214164
   5 O :   -0.241757
   6 C :   -0.027949
   7 C :   -0.283482
   8 H :    0.107130
   9 H :    0.101033
  10 H :    0.098691
  11 H :    0.094485
  12 H :    0.107145
  13 H :    0.101466
  14 H :    0.091751
  15 H :    0.103426
  16 H :    0.115543
  17 H :    0.111559
  18 H :    0.113075
  19 H :    0.114132
Sum of atomic charges:   -0.0000000

LOEWDIN ATOMIC CHARGES
----------------------
   0 C :   -0.339230
   1 C :   -0.224471
   2 C :   -0.242684
   3 C :    0.036090
   4 O :   -0.175793
   5 O :   -0.069445
   6 C :   -0.112927
   7 C :   -0.351444
   8 H :    0.121875
   9 H :    0.119315
  10 H :    0.117994
  11 H :    0.117696
  12 H :    0.123207
  13 H :    0.135498
  14 H :    0.127102
  15 H :    0.116382
  16 H :    0.119922
  17 H :    0.129943
  18 H :    0.125518
  19 H :    0.125452

  Mayer bond orders larger than 0.100000
B(  0-C ,  1-C ) :   1.1577 B(  0-C ,  8-H ) :   0.9518 B(  0-C ,  9-H ) :   0.9536
B(  0-C , 10-H ) :   0.9529 B(  1-C ,  2-C ) :   1.1280 B(  1-C , 11-H ) :   0.9279
B(  1-C , 12-H ) :   0.9254 B(  2-C ,  3-C ) :   1.0192 B(  2-C , 13-H ) :   0.9003
B(  2-C , 14-H ) :   0.9044 B(  3-C ,  4-O ) :   2.0559 B(  3-C ,  5-O ) :   1.2102
B(  5-O ,  6-C ) :   0.9123 B(  6-C ,  7-C ) :   1.1612 B(  6-C , 15-H ) :   0.9363
B(  6-C , 16-H ) :   0.9108 B(  7-C , 17-H ) :   0.9447 B(  7-C , 18-H ) :   0.9522
B(  7-C , 19-H ) :   0.9488

Dispersion correction           -0.014363248
FINAL SINGLE POINT ENERGY      -385.456898325771

DIPOLE MOMENT
-------------

Method             : SCF
Type of density    : Electron Density
Multiplicity       :   1
Irrep              :   0
Energy             :  -385.5318828293794695 Eh
Relativity type    :
Basis              : AO
                                X                 Y                 Z
Electronic contribution:      3.003456431       5.365503894      -1.798876080
Nuclear contribution   :     -2.775286563      -6.104259454       1.698021564
                        -----------------------------------------
Total Dipole Moment    :      0.228169868      -0.738755560      -0.100854516
                        -----------------------------------------
Magnitude (a.u.)       :      0.779738995
Magnitude (Debye)      :      1.981939017

Rotational constants in cm-1:             0.133394             0.031448             0.027833
Rotational constants in MHz :          3999.057111           942.778941           834.427262

                             ****ORCA TERMINATED NORMALLY****
TOTAL RUN TIME: 0 days 0 hours 0 minutes 10 seconds 490 msec
