                         Program Version 6.0.0  -   RELEASE  -
|  1> ! r2scan-3c def2/J RI DEFGRID2 scfconv6 printgap
|  2> %output
|  3>     printlevel normal
|  4> end
|  5> * xyz 0 1
|  6> C 3.8377111289 -0.2828557822 -0.2984877239
|  7> C 2.5233816872 -0.2316755599 0.4716598065
|  8> C 1.326458469 -0.0754982222 -0.4642573578
|  9> C 0.008334278 -0.0225251935 0.3093220342
| 10> C -1.1658003977 0.1357543647 -0.6395084128
| 11> Cl -2.7170986614 0.1975569241 0.269720473
| 12> H 4.6759773074 -0.3931336876 0.3846652548
| 13> H 3.9792964711 0.6303453519 -0.8718042754
| 14> H 3.8430192144 -1.1239588579 -0.987778642
| 15> H 2.4084049846 -1.1476564965 1.0546623354
| 16> H 2.5455470772 0.6057986776 1.1718686376
| 17> H 1.3033809394 -0.9139867819 -1.1628789572
| 18> H 1.4418655329 0.8404238057 -1.0468659082
| 19> H 0.0264062315 0.8158701931 1.0078996324
| 20> H -0.1138450863 -0.9390227261 0.8892335632
| 21> H -1.1061622713 1.0665725769 -1.2008643911
| 22> H -1.24771824 -0.7083778691 -1.321980981
| 23> *
| 24>
| 25>                          ****END OF INPUT****

CARTESIAN COORDINATES (ANGSTROEM)
---------------------------------
  C      3.837711   -0.282856   -0.298488
  C      2.523382   -0.231676    0.471660
  C      1.326458   -0.075498   -0.464257
  C      0.008334   -0.022525    0.309322
  C     -1.165800    0.135754   -0.639508
  Cl    -2.717099    0.197557    0.269720
  H      4.675977   -0.393134    0.384665
  H      3.979296    0.630345   -0.871804
  H      3.843019   -1.123959   -0.987779
  H      2.408405   -1.147656    1.054662
  H      2.545547    0.605799    1.171869
  H      1.303381   -0.913987   -1.162879
  H      1.441866    0.840424   -1.046866
  H      0.026406    0.815870    1.007900
  H     -0.113845   -0.939023    0.889234
  H     -1.106162    1.066573   -1.200864
  H     -1.247718   -0.708378   -1.321981

 Total Charge           Charge          ....    0
 Multiplicity           Mult            ....    1
 Number of Electrons    NEL             ....   58
 Basis Dimension        Dim             ....  177

ORBITAL ENERGIES
----------------

  NO   OCC          E(Eh)            E(eV)
   0   2.0000    -101.195825     -2753.6784
   1   2.0000     -10.090628      -274.5799
   2   2.0000     -10.039897      -273.1995
   3   2.0000     -10.036356      -273.1031
   4   2.0000     -10.032968      -273.0109
   5   2.0000     -10.022023      -272.7131
   6   2.0000      -9.351862      -254.4771
   7   2.0000      -7.098053      -193.1478
   8   2.0000      -7.087923      -192.8722
   9   2.0000      -7.087907      -192.8717
  10   2.0000      -0.820438       -22.3253
  11   2.0000      -0.772088       -21.0096
  12   2.0000      -0.713867       -19.4253
  13   2.0000      -0.637610       -17.3503
  14   2.0000      -0.573326       -15.6010
  15   2.0000      -0.555713       -15.1217
  16   2.0000      -0.466513       -12.6945
  17   2.0000      -0.427582       -11.6351
  18   2.0000      -0.417731       -11.3670
  19   2.0000      -0.400933       -10.9099
  20   2.0000      -0.378020       -10.2864
  21   2.0000      -0.372622       -10.1395
  22   2.0000      -0.345129        -9.3914
  23   2.0000      -0.323491        -8.8026
  24   2.0000      -0.312204        -8.4955
  25   2.0000      -0.307903        -8.3785
  26   2.0000      -0.304145        -8.2762
  27   2.0000      -0.262123        -7.1327
  28   2.0000      -0.259839        -7.0706
  29   0.0000       0.009901         0.2694
  30   0.0000       0.093023         2.5313
  31   0.0000       0.097084         2.6418
  32   0.0000       0.109937         2.9916
  33   0.0000       0.126333         3.4377

MULLIKEN ATOMIC CHARGES
-----------------------
   0 C :   -0.463718
   1 C :   -0.226616
   2 C :   -0.284312
   3 C :   -0.274723
   4 C :   -0.151525
   5 Cl:   -0.203716
   6 H :    0.148826
   7 H :    0.141638
   8 H :    0.141679
   9 H :    0.138001
  10 H :    0.137957
  11 H :    0.137789
  12 H :    0.137671
  13 H :    0.153192
  14 H :    0.153259
  15 H :    0.157339
  16 H :    0.157259
Sum of atomic charges:    0.0000000

LOEWDIN ATOMIC CHARGES
----------------------
   0 C :   -0.423789
   1 C :   -0.313249
   2 C :   -0.309795
   3 C :   -0.328581
   4 C :   -0.321310
   5 Cl:   -0.006492
   6 H :    0.151469
   7 H :    0.150017
   8 H :    0.150026
   9 H :    0.152596
  10 H :    0.152580
  11 H :    0.154807
  12 H :    0.154777
  13 H :    0.161339
  14 H :    0.161346
  15 H :    0.157131
  16 H :    0.157127

  Mayer bond orders larger than 0.100000
B(  0-C ,  1-C ) :   0.9004 B(  0-C ,  6-H ) :   0.9747 B(  0-C ,  7-H ) :   0.9829
B(  0-C ,  8-H ) :   0.9828 B(  1-C ,  2-C ) :   0.9208 B(  1-C ,  9-H ) :   0.9723
B(  1-C , 10-H ) :   0.9726 B(  2-C ,  3-C ) :   0.9002 B(  2-C , 11-H ) :   0.9739
B(  2-C , 12-H ) :   0.9744 B(  3-C ,  4-C ) :   0.9440 B(  3-C , 13-H ) :   0.9699
B(  3-C , 14-H ) :   0.9696 B(  4-C ,  5-Cl) :   0.9808 B(  4-C , 15-H ) :   0.9636
B(  4-C , 16-H ) :   0.9634

Dispersion correction           -0.004112218
FINAL SINGLE POINT ENERGY      -657.268864591223

DIPOLE MOMENT
-------------

Method             : SCF
Type of density    : Electron Density
Multiplicity       :   1
Irrep              :   0
Energy             :  -657.2748239717084289 Eh
Relativity type    :
Basis              : AO
                                X                 Y                 Z
Electronic contribution:    -19.410732712       1.404617165       1.993943138
Nuclear contribution   :     20.305182478      -1.453939258      -2.317016321
                        -----------------------------------------
Total Dipole Moment    :      0.894449766      -0.049322093      -0.323073183
                        -----------------------------------------
Magnitude (a.u.)       :      0.952286372
Magnitude (Debye)      :      2.420519597

Rotational constants in cm-1:             0.497452             0.026468             0.025735
Rotational constants in MHz :         14913.242372           793.487334           771.517292

                             ****ORCA TERMINATED NORMALLY****
TOTAL RUN TIME: 0 days 0 hours 0 minutes 18 seconds 523 msec
