                         Program Version 6.0.0  -   RELEASE  -
|  1> ! r2scan-3c def2/J RI DEFGRID2 scfconv6 printgap
|  2> %output
|  3>     printlevel normal
|  4> end
|  5> %cpcm
|  6>     smd true
|  7>     smdsolvent "water"
|  8> end
|  9> * xyz 0 1
| 10> C 3.8377111289 -0.2828557822 -0.2984877239
| 11> C 2.5233816872 -0.2316755599 0.4716598065
| 12> C 1.326458469 -0.0754982222 -0.4642573578
| 13> C 0.008334278 -0.0225251935 0.3093220342
| 14> C -1.1658003977 0.1357543647 -0.6395084128
| 15> Cl -2.7170986614 0.1975569241 0.269720473
| 16> H 4.6759773074 -0.3931336876 0.3846652548
| 17> H 3.9792964711 0.6303453519 -0.8718042754
| 18> H 3.8430192144 -1.1239588579 -0.987778642
| 19> H 2.4084049846 -1.1476564965 1.0546623354
| 20> H 2.5455470772 0.6057986776 1.1718686376
| 21> H 1.3033809394 -0.9139867819 -1.1628789572
| 22> H 1.4418655329 0.8404238057 -1.0468659082
| 23> H 0.0264062315 0.8158701931 1.0078996324
| 24> H -0.1138450863 -0.9390227261 0.8892335632
| 25> H -1.1061622713 1.0665725769 -1.2008643911
| 26> H -1.24771824 -0.7083778691 -1.321980981
| 27> *
| 28>
| 29>                          ****END OF INPUT****

CARTESIAN COORDINATES (ANGSTROEM)
---------------------------------
  C      3.837711   -0.282856   -0.298488
  C      2.523382   -0.231676    0.471660
  C      1.326458   -0.075498   -0.464257
  C      0.008334   -0.022525    0.309322
  C     -1.165800    0.135754   -0.639508
  Cl    -2.717099    0.197557    0.269720
  H      4.675977   -0.393134    0.384665
  H      3.979296    0.630345   -0.871804
  H      3.843019   -1.123959   -0.987779
  H      2.408405   -1.147656    1.054662
  H      2.545547    0.605799    1.171869
  H      1.303381   -0.913987   -1.162879
  H      1.441866    0.840424   -1.046866
  H      0.026406    0.815870    1.007900
  H     -0.113845   -0.939023    0.889234
  H     -1.106162    1.066573   -1.200864
  H     -1.247718   -0.708378   -1.321981

 Total Charge           Charge          ....    0
 Multiplicity           Mult            ....    1
 Number of Electrons    NEL             ....   58
 Basis Dimension        Dim             ....  177

ORBITAL ENERGIES
----------------

  NO   OCC          E(Eh)            E(eV)
   0   2.0000    -101.197847     -2753.7334
   1   2.0000     -10.080085      -274.2931
   2   2.0000     -10.026543      -272.8361
   3   2.0000     -10.019763      -272.6516
   4   2.0000     -10.017516      -272.5905
   5   2.0000     -10.007553      -272.3194
   6   2.0000      -9.354274      -254.5427
   7   2.0000      -7.100039      -193.2019
   8   2.0000      -7.090512      -192.9427
   9   2.0000      -7.090499      -192.9423
  10   2.0000      -0.816635       -22.2218
  11   2.0000      -0.759035       -20.6544
  12   2.0000      -0.702473       -19.1153
  13   2.0000      -0.625924       -17.0323
  14   2.0000      -0.561066       -15.2674
  15   2.0000      -0.540259       -14.7012
  16   2.0000      -0.451520       -12.2865
  17   2.0000      -0.413521       -11.2525
  18   2.0000      -0.407876       -11.0989
  19   2.0000      -0.388702       -10.5771
  20   2.0000      -0.369637       -10.0583
  21   2.0000      -0.358583        -9.7575
  22   2.0000      -0.332225        -9.0403
  23   2.0000      -0.309266        -8.4156
  24   2.0000      -0.299216        -8.1421
  25   2.0000      -0.295443        -8.0394
  26   2.0000      -0.287452        -7.8220
  27   2.0000      -0.263881        -7.1806
  28   2.0000      -0.259993        -7.0748
  29   0.0000       0.013818         0.3760
  30   0.0000       0.106450         2.8967
  31   0.0000       0.111695         3.0394
  32   0.0000       0.121939         3.3181
  33   0.0000       0.144193         3.9237

MULLIKEN ATOMIC CHARGES
-----------------------
   0 C :   -0.507761
   1 C :   -0.240346
   2 C :   -0.294556
   3 C :   -0.289140
   4 C :   -0.162757
   5 Cl:   -0.253114
   6 H :    0.156805
   7 H :    0.152960
   8 H :    0.153040
   9 H :    0.146773
  10 H :    0.146856
  11 H :    0.152210
  12 H :    0.151977
  13 H :    0.161301
  14 H :    0.161155
  15 H :    0.182330
  16 H :    0.182269
Sum of atomic charges:    0.0000000

LOEWDIN ATOMIC CHARGES
----------------------
   0 C :   -0.432968
   1 C :   -0.315316
   2 C :   -0.307936
   3 C :   -0.329739
   4 C :   -0.316058
   5 Cl:   -0.039972
   6 H :    0.152672
   7 H :    0.152304
   8 H :    0.152321
   9 H :    0.154218
  10 H :    0.154224
  11 H :    0.159171
  12 H :    0.159128
  13 H :    0.162547
  14 H :    0.162514
  15 H :    0.166448
  16 H :    0.166441

  Mayer bond orders larger than 0.100000
B(  0-C ,  1-C ) :   0.8899 B(  0-C ,  6-H ) :   0.9727 B(  0-C ,  7-H ) :   0.9809
B(  0-C ,  8-H ) :   0.9808 B(  1-C ,  2-C ) :   0.9118 B(  1-C ,  9-H ) :   0.9730
B(  1-C , 10-H ) :   0.9733 B(  2-C ,  3-C ) :   0.9088 B(  2-C , 11-H ) :   0.9726
B(  2-C , 12-H ) :   0.9730 B(  3-C ,  4-C ) :   0.9389 B(  3-C , 13-H ) :   0.9688
B(  3-C , 14-H ) :   0.9685 B(  4-C ,  5-Cl) :   0.9371 B(  4-C , 15-H ) :   0.9566
B(  4-C , 16-H ) :   0.9565

Dispersion correction           -0.004112218
FINAL SINGLE POINT ENERGY      -657.270431098407

DIPOLE MOMENT
-------------

Method             : SCF
Type of density    : Electron Density
Multiplicity       :   1
Irrep              :   0
Energy             :  -657.2763904788923810 Eh
Relativity type    :
Basis              : AO
                                X                 Y                 Z
Electronic contribution:    -19.218160303       1.399872537       1.836727809
Nuclear contribution   :     20.305182478      -1.453939258      -2.317016321
                        -----------------------------------------
Total Dipole Moment    :      1.087022175      -0.054066721      -0.480288512
                        -----------------------------------------
Magnitude (a.u.)       :      1.189629133
Magnitude (Debye)      :      3.023796951

Rotational constants in cm-1:             0.497452             0.026468             0.025735
Rotational constants in MHz :         14913.242372           793.487334           771.517292

                             ****ORCA TERMINATED NORMALLY****
TOTAL RUN TIME: 0 days 0 hours 0 minutes 24 seconds 347 msec
