                         Program Version 6.0.0  -   RELEASE  -
|  1> ! r2scan-3c def2/J RI DEFGRID2 scfconv6 printgap
|  2> %output
|  3>     printlevel normal
|  4> end
|  5> * xyz 0 1
|  6> C 1.0364451046 -1.6526513601 0.4085310934
|  7> O 0.5705933256 -0.8276359193 -0.6696823389
|  8> C -0.1670481701 0.2863386981 -0.2770520238
|  9> O 0.5408571722 1.1383318163 0.5510379913
| 10> C 1.6121678099 1.8192307958 -0.0977476551
| 11> O -1.3031755598 -0.0434353382 0.4394869613
| 12> C -2.3079585493 -0.6938759404 -0.3348126524
| 13> H 0.6240311471 -2.65210936 0.2748352281
| 14> H 0.7105073085 -1.2362351799 1.361156835
| 15> H 2.1245640879 -1.686085447 0.3660293365
| 16> H -0.4253732308 0.7799644586 -1.2384836083
| 17> H 2.308776894 1.1060648095 -0.5434747097
| 18> H 2.1002163765 2.3916576561 0.6849106459
| 19> H 1.2213452466 2.4835972321 -0.8729653423
| 20> H -2.680408837 -0.0198958158 -1.1107820046
| 21> H -3.0968127122 -0.9370259138 0.3701843597
| 22> H -1.9122436936 -1.6009656473 -0.79652292
| 23> *
| 24>
| 25>                          ****END OF INPUT****

CARTESIAN COORDINATES (ANGSTROEM)
---------------------------------
  C      1.036445   -1.652651    0.408531
  O      0.570593   -0.827636   -0.669682
  C     -0.167048    0.286339   -0.277052
  O      0.540857    1.138332    0.551038
  C      1.612168    1.819231   -0.097748
  O     -1.303176   -0.043435    0.439487
  C     -2.307959   -0.693876   -0.334813
  H      0.624031   -2.652109    0.274835
  H      0.710507   -1.236235    1.361157
  H      2.124564   -1.686085    0.366029
  H     -0.425373    0.779964   -1.238484
  H      2.308777    1.106065   -0.543475
  H      2.100216    2.391658    0.684911
  H      1.221345    2.483597   -0.872965
  H     -2.680409   -0.019896   -1.110782
  H     -3.096813   -0.937026    0.370184
  H     -1.912244   -1.600966   -0.796523

 Total Charge           Charge          ....    0
 Multiplicity           Mult            ....    1
 Number of Electrons    NEL             ....   58
 Basis Dimension        Dim             ....  198

ORBITAL ENERGIES
----------------

  NO   OCC          E(Eh)            E(eV)
   0   2.0000     -18.961239      -515.9616
   1   2.0000     -18.961206      -515.9606
   2   2.0000     -18.956060      -515.8206
   3   2.0000     -10.172175      -276.7989
   4   2.0000     -10.076283      -274.1896
   5   2.0000     -10.076251      -274.1887
   6   2.0000     -10.067696      -273.9559
   7   2.0000      -1.068031       -29.0626
   8   2.0000      -0.983936       -26.7743
   9   2.0000      -0.973890       -26.5009
  10   2.0000      -0.708499       -19.2792
  11   2.0000      -0.667318       -18.1587
  12   2.0000      -0.644307       -17.5325
  13   2.0000      -0.561685       -15.2842
  14   2.0000      -0.494044       -13.4436
  15   2.0000      -0.482746       -13.1362
  16   2.0000      -0.482669       -13.1341
  17   2.0000      -0.422912       -11.5080
  18   2.0000      -0.410842       -11.1796
  19   2.0000      -0.398807       -10.8521
  20   2.0000      -0.394027       -10.7220
  21   2.0000      -0.381890       -10.3918
  22   2.0000      -0.367085        -9.9889
  23   2.0000      -0.332155        -9.0384
  24   2.0000      -0.319745        -8.7007
  25   2.0000      -0.272930        -7.4268
  26   2.0000      -0.254546        -6.9265
  27   2.0000      -0.245925        -6.6920
  28   2.0000      -0.230910        -6.2834
  29   0.0000       0.064661         1.7595
  30   0.0000       0.085902         2.3375
  31   0.0000       0.096816         2.6345
  32   0.0000       0.097527         2.6538
  33   0.0000       0.116711         3.1759

MULLIKEN ATOMIC CHARGES
-----------------------
   0 C :   -0.273525
   1 O :   -0.267519
   2 C :    0.151928
   3 O :   -0.229507
   4 C :   -0.300191
   5 O :   -0.229430
   6 C :   -0.300102
   7 H :    0.140097
   8 H :    0.171215
   9 H :    0.140077
  10 H :    0.099535
  11 H :    0.157828
  12 H :    0.152333
  13 H :    0.138616
  14 H :    0.138514
  15 H :    0.152321
  16 H :    0.157809
Sum of atomic charges:   -0.0000000

LOEWDIN ATOMIC CHARGES
----------------------
   0 C :   -0.069788
   1 O :   -0.659094
   2 C :    0.405424
   3 O :   -0.640186
   4 C :   -0.058845
   5 O :   -0.640179
   6 C :   -0.058860
   7 H :    0.164884
   8 H :    0.183648
   9 H :    0.164830
  10 H :    0.197109
  11 H :    0.166673
  12 H :    0.178065
  13 H :    0.160818
  14 H :    0.160800
  15 H :    0.178051
  16 H :    0.166651

  Mayer bond orders larger than 0.100000
B(  0-C ,  1-O ) :   0.8617 B(  0-C ,  7-H ) :   0.9714 B(  0-C ,  8-H ) :   0.9661
B(  0-C ,  9-H ) :   0.9714 B(  1-O ,  2-C ) :   0.9698 B(  2-C ,  3-O ) :   1.0704
B(  2-C ,  5-O ) :   1.0704 B(  2-C , 10-H ) :   0.9590 B(  3-O ,  4-C ) :   0.8625
B(  4-C , 11-H ) :   0.9655 B(  4-C , 12-H ) :   0.9707 B(  4-C , 13-H ) :   0.9689
B(  5-O ,  6-C ) :   0.8626 B(  6-C , 14-H ) :   0.9689 B(  6-C , 15-H ) :   0.9707
B(  6-C , 16-H ) :   0.9655

Dispersion correction           -0.004006286
FINAL SINGLE POINT ENERGY      -383.995017739942

DIPOLE MOMENT
-------------

Method             : SCF
Type of density    : Electron Density
Multiplicity       :   1
Irrep              :   0
Energy             :  -384.0089865278483785 Eh
Relativity type    :
Basis              : AO
                                X                 Y                 Z
Electronic contribution:     -0.818267969       1.172457743       1.048126446
Nuclear contribution   :      0.911498215      -1.282296751      -1.407290945
                        -----------------------------------------
Total Dipole Moment    :      0.093230246      -0.109839008      -0.359164499
                        -----------------------------------------
Magnitude (a.u.)       :      0.386982718
Magnitude (Debye)      :      0.983631898

Rotational constants in cm-1:             0.123834             0.070343             0.052129
Rotational constants in MHz :          3712.461369          2108.832396          1562.791743

                             ****ORCA TERMINATED NORMALLY****
TOTAL RUN TIME: 0 days 0 hours 0 minutes 23 seconds 663 msec
