                         Program Version 6.0.0  -   RELEASE  -
|  1> ! r2scan-3c def2/J RI DEFGRID2 scfconv6 printgap
|  2> %output
|  3>     printlevel normal
|  4> end
|  5> %cpcm
|  6>     smd true
|  7>     smdsolvent "water"
|  8> end
|  9> * xyz 0 1
| 10> C 1.0364451046 -1.6526513601 0.4085310934
| 11> O 0.5705933256 -0.8276359193 -0.6696823389
| 12> C -0.1670481701 0.2863386981 -0.2770520238
| 13> O 0.5408571722 1.1383318163 0.5510379913
| 14> C 1.6121678099 1.8192307958 -0.0977476551
| 15> O -1.3031755598 -0.0434353382 0.4394869613
| 16> C -2.3079585493 -0.6938759404 -0.3348126524
| 17> H 0.6240311471 -2.65210936 0.2748352281
| 18> H 0.7105073085 -1.2362351799 1.361156835
| 19> H 2.1245640879 -1.686085447 0.3660293365
| 20> H -0.4253732308 0.7799644586 -1.2384836083
| 21> H 2.308776894 1.1060648095 -0.5434747097
| 22> H 2.1002163765 2.3916576561 0.6849106459
| 23> H 1.2213452466 2.4835972321 -0.8729653423
| 24> H -2.680408837 -0.0198958158 -1.1107820046
| 25> H -3.0968127122 -0.9370259138 0.3701843597
| 26> H -1.9122436936 -1.6009656473 -0.79652292
| 27> *
| 28>
| 29>                          ****END OF INPUT****

CARTESIAN COORDINATES (ANGSTROEM)
---------------------------------
  C      1.036445   -1.652651    0.408531
  O      0.570593   -0.827636   -0.669682
  C     -0.167048    0.286339   -0.277052
  O      0.540857    1.138332    0.551038
  C      1.612168    1.819231   -0.097748
  O     -1.303176   -0.043435    0.439487
  C     -2.307959   -0.693876   -0.334813
  H      0.624031   -2.652109    0.274835
  H      0.710507   -1.236235    1.361157
  H      2.124564   -1.686085    0.366029
  H     -0.425373    0.779964   -1.238484
  H      2.308777    1.106065   -0.543475
  H      2.100216    2.391658    0.684911
  H      1.221345    2.483597   -0.872965
  H     -2.680409   -0.019896   -1.110782
  H     -3.096813   -0.937026    0.370184
  H     -1.912244   -1.600966   -0.796523

 Total Charge           Charge          ....    0
 Multiplicity           Mult            ....    1
 Number of Electrons    NEL             ....   58
 Basis Dimension        Dim             ....  198

ORBITAL ENERGIES
----------------

  NO   OCC          E(Eh)            E(eV)
   0   2.0000     -18.970817      -516.2222
   1   2.0000     -18.970815      -516.2221
   2   2.0000     -18.964903      -516.0612
   3   2.0000     -10.175971      -276.9022
   4   2.0000     -10.069958      -274.0175
   5   2.0000     -10.069917      -274.0164
   6   2.0000     -10.065552      -273.8976
   7   2.0000      -1.076356       -29.2891
   8   2.0000      -0.991745       -26.9868
   9   2.0000      -0.982251       -26.7284
  10   2.0000      -0.709629       -19.3100
  11   2.0000      -0.668280       -18.1848
  12   2.0000      -0.640469       -17.4280
  13   2.0000      -0.562037       -15.2938
  14   2.0000      -0.494827       -13.4649
  15   2.0000      -0.488204       -13.2847
  16   2.0000      -0.487129       -13.2555
  17   2.0000      -0.421268       -11.4633
  18   2.0000      -0.410970       -11.1831
  19   2.0000      -0.398282       -10.8378
  20   2.0000      -0.391578       -10.6554
  21   2.0000      -0.382751       -10.4152
  22   2.0000      -0.363986        -9.9046
  23   2.0000      -0.337183        -9.1752
  24   2.0000      -0.323364        -8.7992
  25   2.0000      -0.281676        -7.6648
  26   2.0000      -0.259878        -7.0716
  27   2.0000      -0.253281        -6.8921
  28   2.0000      -0.239793        -6.5251
  29   0.0000       0.066359         1.8057
  30   0.0000       0.086165         2.3447
  31   0.0000       0.098690         2.6855
  32   0.0000       0.106279         2.8920
  33   0.0000       0.121268         3.2999

MULLIKEN ATOMIC CHARGES
-----------------------
   0 C :   -0.292333
   1 O :   -0.310666
   2 C :    0.154059
   3 O :   -0.281608
   4 C :   -0.319097
   5 O :   -0.281617
   6 C :   -0.318903
   7 H :    0.164262
   8 H :    0.171133
   9 H :    0.164322
  10 H :    0.138442
  11 H :    0.168643
  12 H :    0.172328
  13 H :    0.165097
  14 H :    0.164933
  15 H :    0.172421
  16 H :    0.168584
Sum of atomic charges:   -0.0000000

LOEWDIN ATOMIC CHARGES
----------------------
   0 C :   -0.069342
   1 O :   -0.681696
   2 C :    0.403308
   3 O :   -0.673624
   4 C :   -0.055663
   5 O :   -0.673709
   6 C :   -0.055727
   7 H :    0.174217
   8 H :    0.183356
   9 H :    0.174192
  10 H :    0.213255
  11 H :    0.172770
  12 H :    0.185819
  13 H :    0.172158
  14 H :    0.172120
  15 H :    0.185854
  16 H :    0.172712

  Mayer bond orders larger than 0.100000
B(  0-C ,  1-O ) :   0.8479 B(  0-C ,  7-H ) :   0.9639 B(  0-C ,  8-H ) :   0.9596
B(  0-C ,  9-H ) :   0.9639 B(  1-O ,  2-C ) :   0.9539 B(  2-C ,  3-O ) :   1.0660
B(  2-C ,  5-O ) :   1.0659 B(  2-C , 10-H ) :   0.9575 B(  3-O ,  4-C ) :   0.8523
B(  4-C , 11-H ) :   0.9594 B(  4-C , 12-H ) :   0.9618 B(  4-C , 13-H ) :   0.9611
B(  5-O ,  6-C ) :   0.8524 B(  6-C , 14-H ) :   0.9610 B(  6-C , 15-H ) :   0.9618
B(  6-C , 16-H ) :   0.9594

Dispersion correction           -0.004006286
FINAL SINGLE POINT ENERGY      -384.001407833904

DIPOLE MOMENT
-------------

Method             : SCF
Type of density    : Electron Density
Multiplicity       :   1
Irrep              :   0
Energy             :  -384.0153766218110718 Eh
Relativity type    :
Basis              : AO
                                X                 Y                 Z
Electronic contribution:     -0.777197094       1.133644983       0.802315027
Nuclear contribution   :      0.911498215      -1.282296751      -1.407290945
                        -----------------------------------------
Total Dipole Moment    :      0.134301121      -0.148651768      -0.604975918
                        -----------------------------------------
Magnitude (a.u.)       :      0.637283297
Magnitude (Debye)      :      1.619845410

Rotational constants in cm-1:             0.123834             0.070343             0.052129
Rotational constants in MHz :          3712.461369          2108.832396          1562.791743

                             ****ORCA TERMINATED NORMALLY****
TOTAL RUN TIME: 0 days 0 hours 0 minutes 30 seconds 5 msec
