                         Program Version 6.0.0  -   RELEASE  -
|  1> ! pbe def2-sv(p) def2/J RI DEFGRID1 loosescf d4 GCP(DFT/SV(P)) printgap
|  2> %output
|  3>     printlevel normal
|  4> end
|  5> * xyz 0 1
|  6> C -3.4341873813 -0.9663527911 0.3058051708
|  7> C -2.0865462996 -0.6243520702 -0.3164644219
|  8> C -1.2951369298 0.3455504152 0.5739132533
|  9> C 0.0156287484 0.6704231042 -0.0897735257
| 10> O 0.20894729 1.6281026864 -0.8117706245
| 11> O 0.9356492946 -0.2427121556 0.1814636766
| 12> C 2.2438633318 -0.1103635306 -0.4009221423
| 13> C 3.2661465841 -0.6696714165 0.5715867651
| 14> H -3.9787398489 -1.6533748032 -0.3360291899
| 15> H -3.2967203024 -1.4346755562 1.2768337596
| 16> H -4.0324079784 -0.0683445531 0.4364664134
| 17> H -2.2362137587 -0.165240394 -1.296003129
| 18> H -1.5016088374 -1.5354318423 -0.4551084184
| 19> H -1.1007526218 -0.1203882138 1.5390249202
| 20> H -1.8582465339 1.2689316897 0.7059700656
| 21> H 2.245144251 -0.6689379066 -1.3418488944
| 22> H 2.4210187057 0.9476405937 -0.6190309391
| 23> H 3.2534424053 -0.1029482108 1.4983026789
| 24> H 3.0368228484 -1.7078835858 0.792403011
| 25> H 4.2544500959 -0.6064742757 0.1283244098
| 26> *
| 27>
| 28>                          ****END OF INPUT****

CARTESIAN COORDINATES (ANGSTROEM)
---------------------------------
  C     -3.434187   -0.966353    0.305805
  C     -2.086546   -0.624352   -0.316464
  C     -1.295137    0.345550    0.573913
  C      0.015629    0.670423   -0.089774
  O      0.208947    1.628103   -0.811771
  O      0.935649   -0.242712    0.181464
  C      2.243863   -0.110364   -0.400922
  C      3.266147   -0.669671    0.571587
  H     -3.978740   -1.653375   -0.336029
  H     -3.296720   -1.434676    1.276834
  H     -4.032408   -0.068345    0.436466
  H     -2.236214   -0.165240   -1.296003
  H     -1.501609   -1.535432   -0.455108
  H     -1.100753   -0.120388    1.539025
  H     -1.858247    1.268932    0.705970
  H      2.245144   -0.668938   -1.341849
  H      2.421019    0.947641   -0.619031
  H      3.253442   -0.102948    1.498303
  H      3.036823   -1.707884    0.792403
  H      4.254450   -0.606474    0.128324

 Total Charge           Charge          ....    0
 Multiplicity           Mult            ....    1
 Number of Electrons    NEL             ....   64
 Basis Dimension        Dim             ....  136

ORBITAL ENERGIES
----------------

  NO   OCC          E(Eh)            E(eV)
   0   2.0000     -18.796183      -511.4702
   1   2.0000     -18.727573      -509.6032
   2   2.0000     -10.002261      -272.1754
   3   2.0000      -9.945123      -270.6205
   4   2.0000      -9.895781      -269.2779
   5   2.0000      -9.895333      -269.2657
   6   2.0000      -9.889076      -269.0954
   7   2.0000      -9.880541      -268.8632
   8   2.0000      -1.002417       -27.2772
   9   2.0000      -0.904890       -24.6233
  10   2.0000      -0.729937       -19.8626
  11   2.0000      -0.699453       -19.0331
  12   2.0000      -0.639556       -17.4032
  13   2.0000      -0.581381       -15.8202
  14   2.0000      -0.534018       -14.5314
  15   2.0000      -0.505250       -13.7486
  16   2.0000      -0.450777       -12.2663
  17   2.0000      -0.433971       -11.8089
  18   2.0000      -0.424542       -11.5524
  19   2.0000      -0.397848       -10.8260
  20   2.0000      -0.388355       -10.5677
  21   2.0000      -0.372185       -10.1277
  22   2.0000      -0.360940        -9.8217
  23   2.0000      -0.345372        -9.3980
  24   2.0000      -0.340755        -9.2724
  25   2.0000      -0.334021        -9.0892
  26   2.0000      -0.313651        -8.5349
  27   2.0000      -0.298924        -8.1341
  28   2.0000      -0.297842        -8.1047
  29   2.0000      -0.290417        -7.9026
  30   2.0000      -0.252901        -6.8818
  31   2.0000      -0.212322        -5.7776
  32   0.0000      -0.016350        -0.4449
  33   0.0000       0.039415         1.0725
  34   0.0000       0.048042         1.3073
  35   0.0000       0.076222         2.0741
  36   0.0000       0.078384         2.1329

MULLIKEN ATOMIC CHARGES
-----------------------
   0 C :   -0.242633
   1 C :   -0.240731
   2 C :   -0.115400
   3 C :    0.108666
   4 O :   -0.211025
   5 O :   -0.246092
   6 C :   -0.025540
   7 C :   -0.281033
   8 H :    0.107064
   9 H :    0.098746
  10 H :    0.101327
  11 H :    0.103487
  12 H :    0.097676
  13 H :    0.093228
  14 H :    0.097742
  15 H :    0.102063
  16 H :    0.114278
  17 H :    0.113890
  18 H :    0.113219
  19 H :    0.111065
Sum of atomic charges:    0.0000000

LOEWDIN ATOMIC CHARGES
----------------------
   0 C :   -0.338872
   1 C :   -0.225364
   2 C :   -0.241659
   3 C :    0.034978
   4 O :   -0.173476
   5 O :   -0.071173
   6 C :   -0.111368
   7 C :   -0.351082
   8 H :    0.121812
   9 H :    0.118172
  10 H :    0.119327
  11 H :    0.122134
  12 H :    0.118508
  13 H :    0.129227
  14 H :    0.133213
  15 H :    0.115132
  16 H :    0.119445
  17 H :    0.126095
  18 H :    0.125236
  19 H :    0.129713

  Mayer bond orders larger than 0.100000
B(  0-C ,  1-C ) :   1.1578 B(  0-C ,  8-H ) :   0.9517 B(  0-C ,  9-H ) :   0.9534
B(  0-C , 10-H ) :   0.9533 B(  1-C ,  2-C ) :   1.1295 B(  1-C , 11-H ) :   0.9269
B(  1-C , 12-H ) :   0.9267 B(  2-C ,  3-C ) :   1.0238 B(  2-C , 13-H ) :   0.8994
B(  2-C , 14-H ) :   0.9036 B(  3-C ,  4-O ) :   2.0632 B(  3-C ,  5-O ) :   1.1995
B(  5-O ,  6-C ) :   0.9119 B(  6-C ,  7-C ) :   1.1592 B(  6-C , 15-H ) :   0.9357
B(  6-C , 16-H ) :   0.9140 B(  7-C , 17-H ) :   0.9523 B(  7-C , 18-H ) :   0.9489
B(  7-C , 19-H ) :   0.9448

Dispersion correction           -0.014364115
FINAL SINGLE POINT ENERGY      -385.456835199048

DIPOLE MOMENT
-------------

Method             : SCF
Type of density    : Electron Density
Multiplicity       :   1
Irrep              :   0
Energy             :  -385.5318257229448591 Eh
Relativity type    :
Basis              : AO
                                X                 Y                 Z
Electronic contribution:      2.783822836       4.752571882      -1.853543091
Nuclear contribution   :     -2.604088713      -5.465037088       2.175929793
                        -----------------------------------------
Total Dipole Moment    :      0.179734122      -0.712465206       0.322386702
                        -----------------------------------------
Magnitude (a.u.)       :      0.802399034
Magnitude (Debye)      :      2.039536259

Rotational constants in cm-1:             0.142195             0.030798             0.027252
Rotational constants in MHz :          4262.906617           923.308130           816.984904

                             ****ORCA TERMINATED NORMALLY****
TOTAL RUN TIME: 0 days 0 hours 0 minutes 11 seconds 312 msec
