                         Program Version 6.0.0  -   RELEASE  -
|  1> ! r2scan-3c def2/J RI DEFGRID2 scfconv6 printgap
|  2> %output
|  3>     printlevel normal
|  4> end
|  5> * xyz 0 1
|  6> C 1.9486995196 -0.7165479326 0.1467976443
|  7> C 1.1250524741 0.3482393971 -0.5690602226
|  8> C 0.0254614368 0.9496281581 0.3091614234
|  9> C -1.1124636187 -0.0252971197 0.6549197461
| 10> N -1.9119368267 -0.4859076619 -0.469730933
| 11> H 2.7550535533 -1.0625468359 -0.495575189
| 12> H 2.3839713795 -0.3096560113 1.0567962411
| 13> H 1.3358718707 -1.5739350835 0.4128734838
| 14> H 1.7901531413 1.1549264201 -0.8864224824
| 15> H 0.6840120905 -0.0798065733 -1.4729118496
| 16> H 0.4681007549 1.3058836581 1.2413296225
| 17> H -0.4050164956 1.8137099656 -0.205514595
| 18> H -1.7939295362 0.4697122687 1.3532010277
| 19> H -0.7090597124 -0.908017072 1.1555402718
| 20> H -1.3258465367 -0.9977396373 -1.1206202466
| 21> H -2.2891012005 0.3140455108 -0.9676603069
| 22> *
| 23>
| 24>                          ****END OF INPUT****

CARTESIAN COORDINATES (ANGSTROEM)
---------------------------------
  C      1.948700   -0.716548    0.146798
  C      1.125052    0.348239   -0.569060
  C      0.025461    0.949628    0.309161
  C     -1.112464   -0.025297    0.654920
  N     -1.911937   -0.485908   -0.469731
  H      2.755054   -1.062547   -0.495575
  H      2.383971   -0.309656    1.056796
  H      1.335872   -1.573935    0.412873
  H      1.790153    1.154926   -0.886422
  H      0.684012   -0.079807   -1.472912
  H      0.468101    1.305884    1.241330
  H     -0.405016    1.813710   -0.205515
  H     -1.793930    0.469712    1.353201
  H     -0.709060   -0.908017    1.155540
  H     -1.325847   -0.997740   -1.120620
  H     -2.289101    0.314046   -0.967660

 Total Charge           Charge          ....    0
 Multiplicity           Mult            ....    1
 Number of Electrons    NEL             ....   42
 Basis Dimension        Dim             ....  155

ORBITAL ENERGIES
----------------

  NO   OCC          E(Eh)            E(eV)
   0   2.0000     -14.134118      -384.6089
   1   2.0000     -10.046777      -273.3867
   2   2.0000     -10.026799      -272.8431
   3   2.0000     -10.021968      -272.7116
   4   2.0000     -10.017878      -272.6003
   5   2.0000      -0.846754       -23.0413
   6   2.0000      -0.751512       -20.4497
   7   2.0000      -0.670749       -18.2520
   8   2.0000      -0.600626       -16.3439
   9   2.0000      -0.533388       -14.5142
  10   2.0000      -0.466144       -12.6844
  11   2.0000      -0.429010       -11.6740
  12   2.0000      -0.411021       -11.1844
  13   2.0000      -0.397006       -10.8031
  14   2.0000      -0.362034        -9.8514
  15   2.0000      -0.351564        -9.5665
  16   2.0000      -0.338307        -9.2058
  17   2.0000      -0.304639        -8.2897
  18   2.0000      -0.298468        -8.1217
  19   2.0000      -0.290519        -7.9054
  20   2.0000      -0.203863        -5.5474
  21   0.0000       0.066605         1.8124
  22   0.0000       0.109472         2.9789
  23   0.0000       0.116345         3.1659
  24   0.0000       0.120211         3.2711
  25   0.0000       0.133530         3.6335

MULLIKEN ATOMIC CHARGES
-----------------------
   0 C :   -0.488113
   1 C :   -0.240967
   2 C :   -0.201882
   3 C :   -0.296880
   4 N :   -0.543848
   5 H :    0.146602
   6 H :    0.145810
   7 H :    0.147734
   8 H :    0.144435
   9 H :    0.125473
  10 H :    0.133471
  11 H :    0.136632
  12 H :    0.150250
  13 H :    0.155366
  14 H :    0.244892
  15 H :    0.241026
Sum of atomic charges:   -0.0000000

LOEWDIN ATOMIC CHARGES
----------------------
   0 C :   -0.425737
   1 C :   -0.321844
   2 C :   -0.307834
   3 C :   -0.085138
   4 N :   -0.732198
   5 H :    0.151274
   6 H :    0.150912
   7 H :    0.147919
   8 H :    0.153055
   9 H :    0.147115
  10 H :    0.155842
  11 H :    0.153993
  12 H :    0.173113
  13 H :    0.171621
  14 H :    0.233660
  15 H :    0.234247

  Mayer bond orders larger than 0.100000
B(  0-C ,  1-C ) :   0.9040 B(  0-C ,  5-H ) :   0.9696 B(  0-C ,  6-H ) :   0.9820
B(  0-C ,  7-H ) :   0.9802 B(  1-C ,  2-C ) :   0.8940 B(  1-C ,  8-H ) :   0.9663
B(  1-C ,  9-H ) :   0.9786 B(  2-C ,  3-C ) :   0.8759 B(  2-C , 10-H ) :   0.9709
B(  2-C , 11-H ) :   0.9689 B(  3-C ,  4-N ) :   0.9567 B(  3-C , 12-H ) :   0.9837
B(  3-C , 13-H ) :   1.0077 B(  4-N , 14-H ) :   0.9214 B(  4-N , 15-H ) :   0.9172

Dispersion correction           -0.003576273
FINAL SINGLE POINT ENERGY      -213.722770826940

DIPOLE MOMENT
-------------

Method             : SCF
Type of density    : Electron Density
Multiplicity       :   1
Irrep              :   0
Energy             :  -213.7298735289560625 Eh
Relativity type    :
Basis              : AO
                                X                 Y                 Z
Electronic contribution:     -2.308878421       0.210740312      -0.256014393
Nuclear contribution   :      2.704790660       0.116094258       0.064076525
                        -----------------------------------------
Total Dipole Moment    :      0.395912240       0.326834570      -0.191937868
                        -----------------------------------------
Magnitude (a.u.)       :      0.548094410
Magnitude (Debye)      :      1.393145276

Rotational constants in cm-1:             0.285368             0.093116             0.087794
Rotational constants in MHz :          8555.117264          2791.540999          2631.986579

                             ****ORCA TERMINATED NORMALLY****
TOTAL RUN TIME: 0 days 0 hours 0 minutes 17 seconds 793 msec
