                         Program Version 6.0.0  -   RELEASE  -
|  1> ! r2scan-3c def2/J RI DEFGRID2 scfconv6 printgap
|  2> %output
|  3>     printlevel normal
|  4> end
|  5> %cpcm
|  6>     smd true
|  7>     smdsolvent "water"
|  8> end
|  9> * xyz 0 1
| 10> C 1.9486995196 -0.7165479326 0.1467976443
| 11> C 1.1250524741 0.3482393971 -0.5690602226
| 12> C 0.0254614368 0.9496281581 0.3091614234
| 13> C -1.1124636187 -0.0252971197 0.6549197461
| 14> N -1.9119368267 -0.4859076619 -0.469730933
| 15> H 2.7550535533 -1.0625468359 -0.495575189
| 16> H 2.3839713795 -0.3096560113 1.0567962411
| 17> H 1.3358718707 -1.5739350835 0.4128734838
| 18> H 1.7901531413 1.1549264201 -0.8864224824
| 19> H 0.6840120905 -0.0798065733 -1.4729118496
| 20> H 0.4681007549 1.3058836581 1.2413296225
| 21> H -0.4050164956 1.8137099656 -0.205514595
| 22> H -1.7939295362 0.4697122687 1.3532010277
| 23> H -0.7090597124 -0.908017072 1.1555402718
| 24> H -1.3258465367 -0.9977396373 -1.1206202466
| 25> H -2.2891012005 0.3140455108 -0.9676603069
| 26> *
| 27>
| 28>                          ****END OF INPUT****

CARTESIAN COORDINATES (ANGSTROEM)
---------------------------------
  C      1.948700   -0.716548    0.146798
  C      1.125052    0.348239   -0.569060
  C      0.025461    0.949628    0.309161
  C     -1.112464   -0.025297    0.654920
  N     -1.911937   -0.485908   -0.469731
  H      2.755054   -1.062547   -0.495575
  H      2.383971   -0.309656    1.056796
  H      1.335872   -1.573935    0.412873
  H      1.790153    1.154926   -0.886422
  H      0.684012   -0.079807   -1.472912
  H      0.468101    1.305884    1.241330
  H     -0.405016    1.813710   -0.205515
  H     -1.793930    0.469712    1.353201
  H     -0.709060   -0.908017    1.155540
  H     -1.325847   -0.997740   -1.120620
  H     -2.289101    0.314046   -0.967660

 Total Charge           Charge          ....    0
 Multiplicity           Mult            ....    1
 Number of Electrons    NEL             ....   42
 Basis Dimension        Dim             ....  155

ORBITAL ENERGIES
----------------

  NO   OCC          E(Eh)            E(eV)
   0   2.0000     -14.127145      -384.4192
   1   2.0000     -10.039408      -273.1862
   2   2.0000     -10.015491      -272.5354
   3   2.0000     -10.012069      -272.4422
   4   2.0000     -10.006479      -272.2901
   5   2.0000      -0.839853       -22.8536
   6   2.0000      -0.741139       -20.1674
   7   2.0000      -0.661283       -17.9944
   8   2.0000      -0.591555       -16.0970
   9   2.0000      -0.523817       -14.2538
  10   2.0000      -0.457465       -12.4483
  11   2.0000      -0.418515       -11.3884
  12   2.0000      -0.401460       -10.9243
  13   2.0000      -0.388099       -10.5607
  14   2.0000      -0.353246        -9.6123
  15   2.0000      -0.341888        -9.3032
  16   2.0000      -0.328860        -8.9487
  17   2.0000      -0.293516        -7.9870
  18   2.0000      -0.288816        -7.8591
  19   2.0000      -0.280372        -7.6293
  20   2.0000      -0.203648        -5.5416
  21   0.0000       0.079244         2.1563
  22   0.0000       0.120449         3.2776
  23   0.0000       0.128122         3.4864
  24   0.0000       0.129864         3.5338
  25   0.0000       0.141233         3.8432

MULLIKEN ATOMIC CHARGES
-----------------------
   0 C :   -0.528045
   1 C :   -0.247931
   2 C :   -0.234616
   3 C :   -0.286246
   4 N :   -0.643489
   5 H :    0.154762
   6 H :    0.155012
   7 H :    0.160161
   8 H :    0.150824
   9 H :    0.140270
  10 H :    0.142623
  11 H :    0.148778
  12 H :    0.153671
  13 H :    0.161626
  14 H :    0.289207
  15 H :    0.283392
Sum of atomic charges:   -0.0000000

LOEWDIN ATOMIC CHARGES
----------------------
   0 C :   -0.434099
   1 C :   -0.323248
   2 C :   -0.308240
   3 C :   -0.090652
   4 N :   -0.757539
   5 H :    0.152731
   6 H :    0.152526
   7 H :    0.151406
   8 H :    0.154055
   9 H :    0.152258
  10 H :    0.158446
  11 H :    0.157748
  12 H :    0.173827
  13 H :    0.173741
  14 H :    0.243379
  15 H :    0.243660

  Mayer bond orders larger than 0.100000
B(  0-C ,  1-C ) :   0.8946 B(  0-C ,  5-H ) :   0.9676 B(  0-C ,  6-H ) :   0.9799
B(  0-C ,  7-H ) :   0.9783 B(  1-C ,  2-C ) :   0.8939 B(  1-C ,  8-H ) :   0.9674
B(  1-C ,  9-H ) :   0.9763 B(  2-C ,  3-C ) :   0.8945 B(  2-C , 10-H ) :   0.9711
B(  2-C , 11-H ) :   0.9693 B(  3-C ,  4-N ) :   0.9643 B(  3-C , 12-H ) :   0.9758
B(  3-C , 13-H ) :   0.9977 B(  4-N , 14-H ) :   0.9046 B(  4-N , 15-H ) :   0.9011

Dispersion correction           -0.003576273
FINAL SINGLE POINT ENERGY      -213.728749914980

DIPOLE MOMENT
-------------

Method             : SCF
Type of density    : Electron Density
Multiplicity       :   1
Irrep              :   0
Energy             :  -213.7358526169961408 Eh
Relativity type    :
Basis              : AO
                                X                 Y                 Z
Electronic contribution:     -2.191946159       0.313417040      -0.348128515
Nuclear contribution   :      2.704790660       0.116094258       0.064076525
                        -----------------------------------------
Total Dipole Moment    :      0.512844501       0.429511298      -0.284051991
                        -----------------------------------------
Magnitude (a.u.)       :      0.726756473
Magnitude (Debye)      :      1.847268149

Rotational constants in cm-1:             0.285368             0.093116             0.087794
Rotational constants in MHz :          8555.117264          2791.540999          2631.986579

                             ****ORCA TERMINATED NORMALLY****
TOTAL RUN TIME: 0 days 0 hours 0 minutes 22 seconds 348 msec
