                         Program Version 6.0.0  -   RELEASE  -
|  1> ! r2scan-3c def2/J RI DEFGRID2 scfconv6 printgap
|  2> %output
|  3>     printlevel normal
|  4> end
|  5> * xyz 0 1
|  6> C 2.0289566781 1.278667233 -0.3534142358
|  7> C 1.2025730002 0.0042976107 -0.4134664224
|  8> C 2.0677995579 -1.2449219817 -0.375530964
|  9> S 0.0237385587 -0.0284670774 1.0120011585
| 10> C -1.6390265414 -0.0038182021 0.2146760171
| 11> C -1.8647373904 1.2798207185 -0.5668170221
| 12> C -1.8786592386 -1.2551337487 -0.6137866162
| 13> H 1.3844249789 2.1542990832 -0.370390261
| 14> H 2.614437588 1.3013107217 0.5629781134
| 15> H 2.7060745603 1.3238221446 -1.2039332633
| 16> H 0.5839712091 0.0019971882 -1.3114750381
| 17> H 2.652828352 -1.2666927651 0.5411813181
| 18> H 2.7467535104 -1.2535509595 -1.2257045854
| 19> H 1.4501072722 -2.1392101777 -0.4095907109
| 20> H -2.2910977313 -0.0166131625 1.09245974
| 21> H -1.2194845009 1.3260615677 -1.4416053006
| 22> H -2.8985135945 1.3259346623 -0.9021822137
| 23> H -1.662323135 2.1442712735 0.0611803606
| 24> H -1.6869260347 -2.1443167197 -0.0178276343
| 25> H -1.2327421739 -1.277006571 -1.4890572761
| 26> H -2.9123847404 -1.276846702 -0.9517089002
| 27> *
| 28>
| 29>                          ****END OF INPUT****

CARTESIAN COORDINATES (ANGSTROEM)
---------------------------------
  C      2.028957    1.278667   -0.353414
  C      1.202573    0.004298   -0.413466
  C      2.067800   -1.244922   -0.375531
  S      0.023739   -0.028467    1.012001
  C     -1.639027   -0.003818    0.214676
  C     -1.864737    1.279821   -0.566817
  C     -1.878659   -1.255134   -0.613787
  H      1.384425    2.154299   -0.370390
  H      2.614438    1.301311    0.562978
  H      2.706075    1.323822   -1.203933
  H      0.583971    0.001997   -1.311475
  H      2.652828   -1.266693    0.541181
  H      2.746754   -1.253551   -1.225705
  H      1.450107   -2.139210   -0.409591
  H     -2.291098   -0.016613    1.092460
  H     -1.219485    1.326062   -1.441605
  H     -2.898514    1.325935   -0.902182
  H     -1.662323    2.144271    0.061180
  H     -1.686926   -2.144317   -0.017828
  H     -1.232742   -1.277007   -1.489057
  H     -2.912385   -1.276847   -0.951709

 Total Charge           Charge          ....    0
 Multiplicity           Mult            ....    1
 Number of Electrons    NEL             ....   66
 Basis Dimension        Dim             ....  211

ORBITAL ENERGIES
----------------

  NO   OCC          E(Eh)            E(eV)
   0   2.0000     -88.533066     -2409.1072
   1   2.0000     -10.068155      -273.9684
   2   2.0000     -10.064605      -273.8718
   3   2.0000     -10.024732      -272.7868
   4   2.0000     -10.024617      -272.7837
   5   2.0000     -10.020827      -272.6806
   6   2.0000     -10.020669      -272.6763
   7   2.0000      -7.827438      -212.9954
   8   2.0000      -5.774995      -157.1456
   9   2.0000      -5.771239      -157.0434
  10   2.0000      -5.763926      -156.8444
  11   2.0000      -0.793260       -21.5857
  12   2.0000      -0.758944       -20.6519
  13   2.0000      -0.661167       -17.9913
  14   2.0000      -0.655015       -17.8239
  15   2.0000      -0.648537       -17.6476
  16   2.0000      -0.561626       -15.2826
  17   2.0000      -0.510743       -13.8980
  18   2.0000      -0.447508       -12.1773
  19   2.0000      -0.426121       -11.5953
  20   2.0000      -0.406846       -11.0708
  21   2.0000      -0.391272       -10.6471
  22   2.0000      -0.387091       -10.5333
  23   2.0000      -0.380725       -10.3601
  24   2.0000      -0.360202        -9.8016
  25   2.0000      -0.357498        -9.7280
  26   2.0000      -0.331102        -9.0097
  27   2.0000      -0.322188        -8.7672
  28   2.0000      -0.318489        -8.6665
  29   2.0000      -0.315220        -8.5776
  30   2.0000      -0.289713        -7.8835
  31   2.0000      -0.260297        -7.0830
  32   2.0000      -0.185495        -5.0476
  33   0.0000       0.022328         0.6076
  34   0.0000       0.044700         1.2164
  35   0.0000       0.078997         2.1496
  36   0.0000       0.112298         3.0558
  37   0.0000       0.113161         3.0793

MULLIKEN ATOMIC CHARGES
-----------------------
   0 C :   -0.467035
   1 C :   -0.012913
   2 C :   -0.468816
   3 S :   -0.167059
   4 C :   -0.064138
   5 C :   -0.458963
   6 C :   -0.457274
   7 H :    0.156023
   8 H :    0.152650
   9 H :    0.141114
  10 H :    0.140169
  11 H :    0.152654
  12 H :    0.141288
  13 H :    0.156459
  14 H :    0.157419
  15 H :    0.141515
  16 H :    0.141651
  17 H :    0.166670
  18 H :    0.166312
  19 H :    0.140698
  20 H :    0.141576
Sum of atomic charges:    0.0000000

LOEWDIN ATOMIC CHARGES
----------------------
   0 C :   -0.420423
   1 C :   -0.289728
   2 C :   -0.420252
   3 S :    0.065067
   4 C :   -0.298596
   5 C :   -0.418671
   6 C :   -0.418713
   7 H :    0.158061
   8 H :    0.157953
   9 H :    0.150861
  10 H :    0.161564
  11 H :    0.157882
  12 H :    0.151056
  13 H :    0.158363
  14 H :    0.171813
  15 H :    0.151868
  16 H :    0.153344
  17 H :    0.161827
  18 H :    0.161848
  19 H :    0.151614
  20 H :    0.153262

  Mayer bond orders larger than 0.100000
B(  0-C ,  1-C ) :   0.9117 B(  0-C ,  7-H ) :   0.9711 B(  0-C ,  8-H ) :   0.9801
B(  0-C ,  9-H ) :   0.9704 B(  1-C ,  2-C ) :   0.9115 B(  1-C ,  3-S ) :   0.8283
B(  1-C , 10-H ) :   0.9287 B(  2-C , 11-H ) :   0.9802 B(  2-C , 12-H ) :   0.9704
B(  2-C , 13-H ) :   0.9716 B(  3-S ,  4-C ) :   0.9450 B(  4-C ,  5-C ) :   0.9072
B(  4-C ,  6-C ) :   0.9098 B(  4-C , 14-H ) :   0.9390 B(  5-C , 15-H ) :   0.9768
B(  5-C , 16-H ) :   0.9603 B(  5-C , 17-H ) :   0.9712 B(  6-C , 18-H ) :   0.9710
B(  6-C , 19-H ) :   0.9768 B(  6-C , 20-H ) :   0.9606

Dispersion correction           -0.006337180
FINAL SINGLE POINT ENERGY      -635.156479664814

DIPOLE MOMENT
-------------

Method             : SCF
Type of density    : Electron Density
Multiplicity       :   1
Irrep              :   0
Energy             :  -635.1632478712497232 Eh
Relativity type    :
Basis              : AO
                                X                 Y                 Z
Electronic contribution:     -0.424579480      -0.175283739       5.987535589
Nuclear contribution   :      0.219899435       0.191702829      -6.658068634
                        -----------------------------------------
Total Dipole Moment    :     -0.204680044       0.016419090      -0.670533045
                        -----------------------------------------
Magnitude (a.u.)       :      0.701268901
Magnitude (Debye)      :      1.782483889

Rotational constants in cm-1:             0.099831             0.046971             0.041326
Rotational constants in MHz :          2992.850835          1408.161133          1238.935373

                             ****ORCA TERMINATED NORMALLY****
TOTAL RUN TIME: 0 days 0 hours 0 minutes 25 seconds 218 msec
