                         Program Version 6.0.0  -   RELEASE  -
|  1> ! r2scan-3c def2/J RI DEFGRID2 scfconv6 printgap
|  2> %output
|  3>     printlevel normal
|  4> end
|  5> %cpcm
|  6>     smd true
|  7>     smdsolvent "water"
|  8> end
|  9> * xyz 0 1
| 10> C 2.0289566781 1.278667233 -0.3534142358
| 11> C 1.2025730002 0.0042976107 -0.4134664224
| 12> C 2.0677995579 -1.2449219817 -0.375530964
| 13> S 0.0237385587 -0.0284670774 1.0120011585
| 14> C -1.6390265414 -0.0038182021 0.2146760171
| 15> C -1.8647373904 1.2798207185 -0.5668170221
| 16> C -1.8786592386 -1.2551337487 -0.6137866162
| 17> H 1.3844249789 2.1542990832 -0.370390261
| 18> H 2.614437588 1.3013107217 0.5629781134
| 19> H 2.7060745603 1.3238221446 -1.2039332633
| 20> H 0.5839712091 0.0019971882 -1.3114750381
| 21> H 2.652828352 -1.2666927651 0.5411813181
| 22> H 2.7467535104 -1.2535509595 -1.2257045854
| 23> H 1.4501072722 -2.1392101777 -0.4095907109
| 24> H -2.2910977313 -0.0166131625 1.09245974
| 25> H -1.2194845009 1.3260615677 -1.4416053006
| 26> H -2.8985135945 1.3259346623 -0.9021822137
| 27> H -1.662323135 2.1442712735 0.0611803606
| 28> H -1.6869260347 -2.1443167197 -0.0178276343
| 29> H -1.2327421739 -1.277006571 -1.4890572761
| 30> H -2.9123847404 -1.276846702 -0.9517089002
| 31> *
| 32>
| 33>                          ****END OF INPUT****

CARTESIAN COORDINATES (ANGSTROEM)
---------------------------------
  C      2.028957    1.278667   -0.353414
  C      1.202573    0.004298   -0.413466
  C      2.067800   -1.244922   -0.375531
  S      0.023739   -0.028467    1.012001
  C     -1.639027   -0.003818    0.214676
  C     -1.864737    1.279821   -0.566817
  C     -1.878659   -1.255134   -0.613787
  H      1.384425    2.154299   -0.370390
  H      2.614438    1.301311    0.562978
  H      2.706075    1.323822   -1.203933
  H      0.583971    0.001997   -1.311475
  H      2.652828   -1.266693    0.541181
  H      2.746754   -1.253551   -1.225705
  H      1.450107   -2.139210   -0.409591
  H     -2.291098   -0.016613    1.092460
  H     -1.219485    1.326062   -1.441605
  H     -2.898514    1.325935   -0.902182
  H     -1.662323    2.144271    0.061180
  H     -1.686926   -2.144317   -0.017828
  H     -1.232742   -1.277007   -1.489057
  H     -2.912385   -1.276847   -0.951709

 Total Charge           Charge          ....    0
 Multiplicity           Mult            ....    1
 Number of Electrons    NEL             ....   66
 Basis Dimension        Dim             ....  211

ORBITAL ENERGIES
----------------

  NO   OCC          E(Eh)            E(eV)
   0   2.0000     -88.532129     -2409.0817
   1   2.0000     -10.059490      -273.7326
   2   2.0000     -10.056314      -273.6462
   3   2.0000     -10.012981      -272.4671
   4   2.0000     -10.012939      -272.4659
   5   2.0000     -10.012584      -272.4563
   6   2.0000     -10.012395      -272.4511
   7   2.0000      -7.826578      -212.9720
   8   2.0000      -5.773901      -157.1158
   9   2.0000      -5.770294      -157.0177
  10   2.0000      -5.763440      -156.8312
  11   2.0000      -0.785710       -21.3803
  12   2.0000      -0.749797       -20.4030
  13   2.0000      -0.651025       -17.7153
  14   2.0000      -0.646645       -17.5961
  15   2.0000      -0.642876       -17.4936
  16   2.0000      -0.552310       -15.0291
  17   2.0000      -0.502447       -13.6723
  18   2.0000      -0.437842       -11.9143
  19   2.0000      -0.416607       -11.3364
  20   2.0000      -0.398389       -10.8407
  21   2.0000      -0.382440       -10.4067
  22   2.0000      -0.378337       -10.2951
  23   2.0000      -0.371047       -10.0967
  24   2.0000      -0.349701        -9.5159
  25   2.0000      -0.347479        -9.4554
  26   2.0000      -0.320593        -8.7238
  27   2.0000      -0.313081        -8.5194
  28   2.0000      -0.309468        -8.4211
  29   2.0000      -0.306875        -8.3505
  30   2.0000      -0.281257        -7.6534
  31   2.0000      -0.257321        -7.0021
  32   2.0000      -0.186070        -5.0632
  33   0.0000       0.024553         0.6681
  34   0.0000       0.049354         1.3430
  35   0.0000       0.090049         2.4503
  36   0.0000       0.123471         3.3598
  37   0.0000       0.123944         3.3727

MULLIKEN ATOMIC CHARGES
-----------------------
   0 C :   -0.521458
   1 C :    0.027746
   2 C :   -0.522724
   3 S :   -0.245011
   4 C :   -0.035290
   5 C :   -0.501408
   6 C :   -0.500745
   7 H :    0.163576
   8 H :    0.162961
   9 H :    0.159348
  10 H :    0.174077
  11 H :    0.163307
  12 H :    0.159666
  13 H :    0.163486
  14 H :    0.173561
  15 H :    0.163941
  16 H :    0.158856
  17 H :    0.167134
  18 H :    0.166794
  19 H :    0.163360
  20 H :    0.158821
Sum of atomic charges:    0.0000000

LOEWDIN ATOMIC CHARGES
----------------------
   0 C :   -0.428128
   1 C :   -0.282550
   2 C :   -0.428055
   3 S :    0.024128
   4 C :   -0.291980
   5 C :   -0.423756
   6 C :   -0.423955
   7 H :    0.158385
   8 H :    0.158440
   9 H :    0.157510
  10 H :    0.173085
  11 H :    0.158505
  12 H :    0.157744
  13 H :    0.158464
  14 H :    0.176645
  15 H :    0.158387
  16 H :    0.159280
  17 H :    0.160249
  18 H :    0.160196
  19 H :    0.158167
  20 H :    0.159237

  Mayer bond orders larger than 0.100000
B(  0-C ,  1-C ) :   0.8948 B(  0-C ,  7-H ) :   0.9713 B(  0-C ,  8-H ) :   0.9808
B(  0-C ,  9-H ) :   0.9661 B(  1-C ,  2-C ) :   0.8941 B(  1-C ,  3-S ) :   0.8074
B(  1-C , 10-H ) :   0.9249 B(  2-C , 11-H ) :   0.9807 B(  2-C , 12-H ) :   0.9660
B(  2-C , 13-H ) :   0.9719 B(  3-S ,  4-C ) :   0.9246 B(  4-C ,  5-C ) :   0.9014
B(  4-C ,  6-C ) :   0.9036 B(  4-C , 14-H ) :   0.9369 B(  5-C , 15-H ) :   0.9732
B(  5-C , 16-H ) :   0.9577 B(  5-C , 17-H ) :   0.9706 B(  6-C , 18-H ) :   0.9707
B(  6-C , 19-H ) :   0.9732 B(  6-C , 20-H ) :   0.9580

Dispersion correction           -0.006337180
FINAL SINGLE POINT ENERGY      -635.157541434477

DIPOLE MOMENT
-------------

Method             : SCF
Type of density    : Electron Density
Multiplicity       :   1
Irrep              :   0
Energy             :  -635.1643096409128475 Eh
Relativity type    :
Basis              : AO
                                X                 Y                 Z
Electronic contribution:     -0.505139317      -0.165960696       5.640301476
Nuclear contribution   :      0.219899435       0.191702829      -6.658068634
                        -----------------------------------------
Total Dipole Moment    :     -0.285239881       0.025742133      -1.017767158
                        -----------------------------------------
Magnitude (a.u.)       :      1.057295813
Magnitude (Debye)      :      2.687432382

Rotational constants in cm-1:             0.099831             0.046971             0.041326
Rotational constants in MHz :          2992.850835          1408.161133          1238.935373

                             ****ORCA TERMINATED NORMALLY****
TOTAL RUN TIME: 0 days 0 hours 0 minutes 29 seconds 850 msec
