                         Program Version 6.0.0  -   RELEASE  -
|  1> ! pbe def2-sv(p) def2/J RI DEFGRID1 loosescf d4 GCP(DFT/SV(P)) printgap
|  2> %output
|  3>     printlevel normal
|  4> end
|  5> * xyz 0 1
|  6> C -2.5827775834 -1.2727127554 -0.0149351173
|  7> C -2.5217756365 0.2498963668 -0.0031982842
|  8> C -1.249979198 0.758556889 0.6842304301
|  9> C -0.0277941225 0.3888552875 -0.1166581985
| 10> O 0.1529345777 0.6846469904 -1.2797082014
| 11> O 0.8320330651 -0.319475891 0.6048259596
| 12> C 2.0666801463 -0.7335464831 -0.003502925
| 13> C 3.147194973 0.3199691183 0.1858499946
| 14> H -1.7442742545 -1.6828653782 -0.5749150793
| 15> H -2.5431292005 -1.6645578987 0.9985744189
| 16> H -3.5036601146 -1.6113030291 -0.4820480657
| 17> H -3.3890617516 0.6475507739 0.5243506427
| 18> H -2.5391132036 0.6268295613 -1.0276139618
| 19> H -1.151871072 0.3388285093 1.6845013369
| 20> H -1.283549613 1.8473803958 0.7470544432
| 21> H 2.3264569917 -1.6638756263 0.5026405349
| 22> H 1.8875448573 -0.9161473956 -1.0675590012
| 23> H 2.8699203683 1.2354139 -0.332161967
| 24> H 3.2766459494 0.5364632561 1.2427586708
| 25> H 4.0829874785 -0.046689355 -0.2230921428
| 26> *
| 27>
| 28>                          ****END OF INPUT****

CARTESIAN COORDINATES (ANGSTROEM)
---------------------------------
  C     -2.582778   -1.272713   -0.014935
  C     -2.521776    0.249896   -0.003198
  C     -1.249979    0.758557    0.684230
  C     -0.027794    0.388855   -0.116658
  O      0.152935    0.684647   -1.279708
  O      0.832033   -0.319476    0.604826
  C      2.066680   -0.733546   -0.003503
  C      3.147195    0.319969    0.185850
  H     -1.744274   -1.682865   -0.574915
  H     -2.543129   -1.664558    0.998574
  H     -3.503660   -1.611303   -0.482048
  H     -3.389062    0.647551    0.524351
  H     -2.539113    0.626830   -1.027614
  H     -1.151871    0.338829    1.684501
  H     -1.283550    1.847380    0.747054
  H      2.326457   -1.663876    0.502641
  H      1.887545   -0.916147   -1.067559
  H      2.869920    1.235414   -0.332162
  H      3.276646    0.536463    1.242759
  H      4.082987   -0.046689   -0.223092

 Total Charge           Charge          ....    0
 Multiplicity           Mult            ....    1
 Number of Electrons    NEL             ....   64
 Basis Dimension        Dim             ....  136

ORBITAL ENERGIES
----------------

  NO   OCC          E(Eh)            E(eV)
   0   2.0000     -18.797795      -511.5140
   1   2.0000     -18.730804      -509.6911
   2   2.0000     -10.004465      -272.2353
   3   2.0000      -9.945942      -270.6428
   4   2.0000      -9.895592      -269.2727
   5   2.0000      -9.891033      -269.1487
   6   2.0000      -9.887270      -269.0463
   7   2.0000      -9.876803      -268.7615
   8   2.0000      -1.003795       -27.3147
   9   2.0000      -0.908218       -24.7139
  10   2.0000      -0.727282       -19.7904
  11   2.0000      -0.696490       -18.9525
  12   2.0000      -0.636526       -17.3208
  13   2.0000      -0.590641       -16.0722
  14   2.0000      -0.531815       -14.4714
  15   2.0000      -0.493490       -13.4285
  16   2.0000      -0.452810       -12.3216
  17   2.0000      -0.432332       -11.7644
  18   2.0000      -0.422484       -11.4964
  19   2.0000      -0.396649       -10.7934
  20   2.0000      -0.391815       -10.6618
  21   2.0000      -0.374745       -10.1973
  22   2.0000      -0.360761        -9.8168
  23   2.0000      -0.350552        -9.5390
  24   2.0000      -0.338366        -9.2074
  25   2.0000      -0.330025        -8.9804
  26   2.0000      -0.304969        -8.2986
  27   2.0000      -0.298265        -8.1162
  28   2.0000      -0.296817        -8.0768
  29   2.0000      -0.287001        -7.8097
  30   2.0000      -0.255169        -6.9435
  31   2.0000      -0.217727        -5.9246
  32   0.0000      -0.020256        -0.5512
  33   0.0000       0.041530         1.1301
  34   0.0000       0.055087         1.4990
  35   0.0000       0.075226         2.0470
  36   0.0000       0.080752         2.1974

MULLIKEN ATOMIC CHARGES
-----------------------
   0 C :   -0.288481
   1 C :   -0.203439
   2 C :   -0.119408
   3 C :    0.091000
   4 O :   -0.213217
   5 O :   -0.235075
   6 C :   -0.017155
   7 C :   -0.301451
   8 H :    0.116346
   9 H :    0.099346
  10 H :    0.107749
  11 H :    0.092008
  12 H :    0.108605
  13 H :    0.092036
  14 H :    0.111779
  15 H :    0.101313
  16 H :    0.108182
  17 H :    0.124748
  18 H :    0.113099
  19 H :    0.112014
Sum of atomic charges:    0.0000000

LOEWDIN ATOMIC CHARGES
----------------------
   0 C :   -0.342464
   1 C :   -0.226810
   2 C :   -0.246535
   3 C :    0.036794
   4 O :   -0.175257
   5 O :   -0.065695
   6 C :   -0.114570
   7 C :   -0.355093
   8 H :    0.120479
   9 H :    0.117617
  10 H :    0.121554
  11 H :    0.117990
  12 H :    0.124650
  13 H :    0.126142
  14 H :    0.141237
  15 H :    0.116728
  16 H :    0.119011
  17 H :    0.129985
  18 H :    0.124223
  19 H :    0.130014

  Mayer bond orders larger than 0.100000
B(  0-C ,  1-C ) :   1.1542 B(  0-C ,  8-H ) :   0.9492 B(  0-C ,  9-H ) :   0.9537
B(  0-C , 10-H ) :   0.9520 B(  1-C ,  2-C ) :   1.1115 B(  1-C , 11-H ) :   0.9284
B(  1-C , 12-H ) :   0.9204 B(  2-C ,  3-C ) :   1.0178 B(  2-C , 13-H ) :   0.9101
B(  2-C , 14-H ) :   0.8940 B(  3-C ,  4-O ) :   2.0343 B(  3-C ,  5-O ) :   1.2164
B(  5-O ,  6-C ) :   0.9229 B(  6-C ,  7-C ) :   1.1733 B(  6-C , 15-H ) :   0.9369
B(  6-C , 16-H ) :   0.9119 B(  7-C , 17-H ) :   0.9471 B(  7-C , 18-H ) :   0.9494
B(  7-C , 19-H ) :   0.9447

Dispersion correction           -0.015251630
FINAL SINGLE POINT ENERGY      -385.458456740586

DIPOLE MOMENT
-------------

Method             : SCF
Type of density    : Electron Density
Multiplicity       :   1
Irrep              :   0
Energy             :  -385.5333904968111369 Eh
Relativity type    :
Basis              : AO
                                X                 Y                 Z
Electronic contribution:      1.787364820       1.940188382      -1.282008944
Nuclear contribution   :     -1.590695118      -2.202065425       1.859280339
                        -----------------------------------------
Total Dipole Moment    :      0.196669702      -0.261877043       0.577271395
                        -----------------------------------------
Magnitude (a.u.)       :      0.663702359
Magnitude (Debye)      :      1.686997328

Rotational constants in cm-1:             0.152182             0.034414             0.032889
Rotational constants in MHz :          4562.307393          1031.704148           985.996919

                             ****ORCA TERMINATED NORMALLY****
TOTAL RUN TIME: 0 days 0 hours 0 minutes 10 seconds 491 msec
