                         Program Version 6.0.0  -   RELEASE  -
|  1> ! r2scan-3c def2/J RI DEFGRID2 scfconv6 printgap
|  2> %output
|  3>     printlevel normal
|  4> end
|  5> * xyz 0 1
|  6> C 2.0343822535 -0.6279574051 -0.1509214131
|  7> C 1.1158814735 0.3364204465 0.5923284201
|  8> C 0.0013520299 0.9066275669 -0.288275914
|  9> C -1.0897414034 -0.0998919214 -0.6589122403
| 10> N -1.9627989433 -0.3649325006 0.4792446172
| 11> H 2.8348450309 -0.9656004241 0.5030423808
| 12> H 1.4907121199 -1.5029513942 -0.4984746159
| 13> H 2.4790471585 -0.1373503668 -1.0138970364
| 14> H 0.6816879257 -0.1655677173 1.4590881769
| 15> H 1.7140170454 1.1693758927 0.9677943113
| 16> H -0.4795959988 1.734279858 0.2348030625
| 17> H 0.4428638483 1.2954318049 -1.2078146148
| 18> H -0.6286883694 -1.0132595618 -1.0692565078
| 19> H -1.7147243243 0.3338715768 -1.445142401
| 20> H -1.4284920883 -0.7942088099 1.2272663373
| 21> H -2.6858849691 -1.0221341354 0.2098910162
| 22> *
| 23>
| 24>                          ****END OF INPUT****

CARTESIAN COORDINATES (ANGSTROEM)
---------------------------------
  C      2.034382   -0.627957   -0.150921
  C      1.115881    0.336420    0.592328
  C      0.001352    0.906628   -0.288276
  C     -1.089741   -0.099892   -0.658912
  N     -1.962799   -0.364933    0.479245
  H      2.834845   -0.965600    0.503042
  H      1.490712   -1.502951   -0.498475
  H      2.479047   -0.137350   -1.013897
  H      0.681688   -0.165568    1.459088
  H      1.714017    1.169376    0.967794
  H     -0.479596    1.734280    0.234803
  H      0.442864    1.295432   -1.207815
  H     -0.628688   -1.013260   -1.069257
  H     -1.714724    0.333872   -1.445142
  H     -1.428492   -0.794209    1.227266
  H     -2.685885   -1.022134    0.209891

 Total Charge           Charge          ....    0
 Multiplicity           Mult            ....    1
 Number of Electrons    NEL             ....   42
 Basis Dimension        Dim             ....  155

ORBITAL ENERGIES
----------------

  NO   OCC          E(Eh)            E(eV)
   0   2.0000     -14.133481      -384.5916
   1   2.0000     -10.046835      -273.3883
   2   2.0000     -10.025303      -272.8024
   3   2.0000     -10.019391      -272.6415
   4   2.0000     -10.016191      -272.5544
   5   2.0000      -0.845244       -23.0003
   6   2.0000      -0.750865       -20.4321
   7   2.0000      -0.670907       -18.2563
   8   2.0000      -0.596721       -16.2376
   9   2.0000      -0.527393       -14.3511
  10   2.0000      -0.462948       -12.5975
  11   2.0000      -0.437993       -11.9184
  12   2.0000      -0.406906       -11.0725
  13   2.0000      -0.394196       -10.7266
  14   2.0000      -0.365948        -9.9579
  15   2.0000      -0.346388        -9.4257
  16   2.0000      -0.336298        -9.1511
  17   2.0000      -0.300527        -8.1778
  18   2.0000      -0.293825        -7.9954
  19   2.0000      -0.288751        -7.8573
  20   2.0000      -0.203673        -5.5422
  21   0.0000       0.068121         1.8537
  22   0.0000       0.108325         2.9477
  23   0.0000       0.114398         3.1129
  24   0.0000       0.122037         3.3208
  25   0.0000       0.131826         3.5872

MULLIKEN ATOMIC CHARGES
-----------------------
   0 C :   -0.489164
   1 C :   -0.228779
   2 C :   -0.234192
   3 C :   -0.217368
   4 N :   -0.562696
   5 H :    0.145563
   6 H :    0.144629
   7 H :    0.145059
   8 H :    0.120999
   9 H :    0.144074
  10 H :    0.155737
  11 H :    0.130218
  12 H :    0.126594
  13 H :    0.138108
  14 H :    0.240269
  15 H :    0.240950
Sum of atomic charges:   -0.0000000

LOEWDIN ATOMIC CHARGES
----------------------
   0 C :   -0.427673
   1 C :   -0.316774
   2 C :   -0.289999
   3 C :   -0.075648
   4 N :   -0.748227
   5 H :    0.150329
   6 H :    0.147436
   7 H :    0.150418
   8 H :    0.147078
   9 H :    0.153686
  10 H :    0.165520
  11 H :    0.155751
  12 H :    0.147281
  13 H :    0.171329
  14 H :    0.233769
  15 H :    0.235724

  Mayer bond orders larger than 0.100000
B(  0-C ,  1-C ) :   0.9043 B(  0-C ,  5-H ) :   0.9695 B(  0-C ,  6-H ) :   0.9827
B(  0-C ,  7-H ) :   0.9819 B(  1-C ,  2-C ) :   0.9123 B(  1-C ,  8-H ) :   0.9804
B(  1-C ,  9-H ) :   0.9643 B(  2-C ,  3-C ) :   0.9402 B(  2-C , 10-H ) :   0.9634
B(  2-C , 11-H ) :   0.9696 B(  3-C ,  4-N ) :   0.9266 B(  3-C , 12-H ) :   0.9868
B(  3-C , 13-H ) :   0.9695 B(  4-N , 14-H ) :   0.9236 B(  4-N , 15-H ) :   0.9191

Dispersion correction           -0.003531244
FINAL SINGLE POINT ENERGY      -213.721625197399

DIPOLE MOMENT
-------------

Method             : SCF
Type of density    : Electron Density
Multiplicity       :   1
Irrep              :   0
Energy             :  -213.7287291002408836 Eh
Relativity type    :
Basis              : AO
                                X                 Y                 Z
Electronic contribution:     -2.334674201       0.620241641       0.470727759
Nuclear contribution   :      2.527742384      -1.004057708      -0.590956447
                        -----------------------------------------
Total Dipole Moment    :      0.193068183      -0.383816067      -0.120228688
                        -----------------------------------------
Magnitude (a.u.)       :      0.446144633
Magnitude (Debye)      :      1.134009537

Rotational constants in cm-1:             0.306264             0.088556             0.085723
Rotational constants in MHz :          9181.570128          2654.833685          2569.900277

                             ****ORCA TERMINATED NORMALLY****
TOTAL RUN TIME: 0 days 0 hours 0 minutes 17 seconds 661 msec
