                         Program Version 6.0.0  -   RELEASE  -
|  1> ! r2scan-3c def2/J RI DEFGRID2 scfconv6 printgap
|  2> %output
|  3>     printlevel normal
|  4> end
|  5> %cpcm
|  6>     smd true
|  7>     smdsolvent "water"
|  8> end
|  9> * xyz 0 1
| 10> C 2.0343822535 -0.6279574051 -0.1509214131
| 11> C 1.1158814735 0.3364204465 0.5923284201
| 12> C 0.0013520299 0.9066275669 -0.288275914
| 13> C -1.0897414034 -0.0998919214 -0.6589122403
| 14> N -1.9627989433 -0.3649325006 0.4792446172
| 15> H 2.8348450309 -0.9656004241 0.5030423808
| 16> H 1.4907121199 -1.5029513942 -0.4984746159
| 17> H 2.4790471585 -0.1373503668 -1.0138970364
| 18> H 0.6816879257 -0.1655677173 1.4590881769
| 19> H 1.7140170454 1.1693758927 0.9677943113
| 20> H -0.4795959988 1.734279858 0.2348030625
| 21> H 0.4428638483 1.2954318049 -1.2078146148
| 22> H -0.6286883694 -1.0132595618 -1.0692565078
| 23> H -1.7147243243 0.3338715768 -1.445142401
| 24> H -1.4284920883 -0.7942088099 1.2272663373
| 25> H -2.6858849691 -1.0221341354 0.2098910162
| 26> *
| 27>
| 28>                          ****END OF INPUT****

CARTESIAN COORDINATES (ANGSTROEM)
---------------------------------
  C      2.034382   -0.627957   -0.150921
  C      1.115881    0.336420    0.592328
  C      0.001352    0.906628   -0.288276
  C     -1.089741   -0.099892   -0.658912
  N     -1.962799   -0.364933    0.479245
  H      2.834845   -0.965600    0.503042
  H      1.490712   -1.502951   -0.498475
  H      2.479047   -0.137350   -1.013897
  H      0.681688   -0.165568    1.459088
  H      1.714017    1.169376    0.967794
  H     -0.479596    1.734280    0.234803
  H      0.442864    1.295432   -1.207815
  H     -0.628688   -1.013260   -1.069257
  H     -1.714724    0.333872   -1.445142
  H     -1.428492   -0.794209    1.227266
  H     -2.685885   -1.022134    0.209891

 Total Charge           Charge          ....    0
 Multiplicity           Mult            ....    1
 Number of Electrons    NEL             ....   42
 Basis Dimension        Dim             ....  155

ORBITAL ENERGIES
----------------

  NO   OCC          E(Eh)            E(eV)
   0   2.0000     -14.127298      -384.4233
   1   2.0000     -10.040253      -273.2092
   2   2.0000     -10.016363      -272.5591
   3   2.0000     -10.013497      -272.4811
   4   2.0000     -10.006779      -272.2983
   5   2.0000      -0.839317       -22.8390
   6   2.0000      -0.743078       -20.2202
   7   2.0000      -0.663845       -18.0641
   8   2.0000      -0.589210       -16.0332
   9   2.0000      -0.520217       -14.1558
  10   2.0000      -0.455226       -12.3873
  11   2.0000      -0.432080       -11.7575
  12   2.0000      -0.398096       -10.8327
  13   2.0000      -0.386691       -10.5224
  14   2.0000      -0.359193        -9.7741
  15   2.0000      -0.338606        -9.2139
  16   2.0000      -0.328398        -8.9362
  17   2.0000      -0.292813        -7.9678
  18   2.0000      -0.286660        -7.8004
  19   2.0000      -0.280986        -7.6460
  20   2.0000      -0.204158        -5.5554
  21   0.0000       0.080308         2.1853
  22   0.0000       0.116375         3.1667
  23   0.0000       0.125196         3.4068
  24   0.0000       0.128938         3.5086
  25   0.0000       0.138204         3.7607

MULLIKEN ATOMIC CHARGES
-----------------------
   0 C :   -0.528916
   1 C :   -0.235681
   2 C :   -0.254671
   3 C :   -0.240151
   4 N :   -0.653617
   5 H :    0.154911
   6 H :    0.157754
   7 H :    0.155330
   8 H :    0.139844
   9 H :    0.150618
  10 H :    0.150204
  11 H :    0.144748
  12 H :    0.139415
  13 H :    0.151102
  14 H :    0.286336
  15 H :    0.282773
Sum of atomic charges:    0.0000000

LOEWDIN ATOMIC CHARGES
----------------------
   0 C :   -0.435219
   1 C :   -0.319458
   2 C :   -0.295239
   3 C :   -0.078851
   4 N :   -0.771064
   5 H :    0.152521
   6 H :    0.151047
   7 H :    0.152452
   8 H :    0.153088
   9 H :    0.154718
  10 H :    0.161175
  11 H :    0.159642
  12 H :    0.153338
  13 H :    0.173265
  14 H :    0.243527
  15 H :    0.245057

  Mayer bond orders larger than 0.100000
B(  0-C ,  1-C ) :   0.8964 B(  0-C ,  5-H ) :   0.9673 B(  0-C ,  6-H ) :   0.9799
B(  0-C ,  7-H ) :   0.9799 B(  1-C ,  2-C ) :   0.9077 B(  1-C ,  8-H ) :   0.9780
B(  1-C ,  9-H ) :   0.9649 B(  2-C ,  3-C ) :   0.9278 B(  2-C , 10-H ) :   0.9670
B(  2-C , 11-H ) :   0.9697 B(  3-C ,  4-N ) :   0.9376 B(  3-C , 12-H ) :   0.9891
B(  3-C , 13-H ) :   0.9710 B(  4-N , 14-H ) :   0.9064 B(  4-N , 15-H ) :   0.9025

Dispersion correction           -0.003531244
FINAL SINGLE POINT ENERGY      -213.726970931028

DIPOLE MOMENT
-------------

Method             : SCF
Type of density    : Electron Density
Multiplicity       :   1
Irrep              :   0
Energy             :  -213.7340748338699825 Eh
Relativity type    :
Basis              : AO
                                X                 Y                 Z
Electronic contribution:     -2.258581605       0.430537227       0.422921936
Nuclear contribution   :      2.527742384      -1.004057708      -0.590956447
                        -----------------------------------------
Total Dipole Moment    :      0.269160778      -0.573520481      -0.168034512
                        -----------------------------------------
Magnitude (a.u.)       :      0.655445546
Magnitude (Debye)      :      1.666010178

Rotational constants in cm-1:             0.306264             0.088556             0.085723
Rotational constants in MHz :          9181.570128          2654.833685          2569.900277

                             ****ORCA TERMINATED NORMALLY****
TOTAL RUN TIME: 0 days 0 hours 0 minutes 21 seconds 786 msec
