                         Program Version 6.0.0  -   RELEASE  -
|  1> ! pbe def2-sv(p) def2/J RI DEFGRID1 loosescf d4 GCP(DFT/SV(P)) printgap
|  2> %output
|  3>     printlevel normal
|  4> end
|  5> * xyz 0 1
|  6> C -1.963351635 0.9609295292 -0.3907201103
|  7> C -1.5546767077 -0.2665021901 0.4165471258
|  8> C -0.317577605 -0.9403856701 -0.1633949359
|  9> N 0.8932871415 -0.1399639386 0.008538784
| 10> O 0.9585182288 0.6457128094 0.9286221806
| 11> O 1.7982429678 -0.3266624787 -0.7833338294
| 12> H -2.147120542 0.6966063849 -1.4292643173
| 13> H -2.8713459426 1.3930781697 0.0193509887
| 14> H -1.1853004638 1.7207991555 -0.3570923319
| 15> H -2.3667227927 -0.9925922876 0.415295164
| 16> H -1.3552213415 0.0245309159 1.4484805166
| 17> H -0.1255523445 -1.8879589435 0.3492578211
| 18> H -0.4157173668 -1.1430077378 -1.2316250249
| 19> *
| 20>
| 21>                          ****END OF INPUT****

CARTESIAN COORDINATES (ANGSTROEM)
---------------------------------
  C     -1.963352    0.960930   -0.390720
  C     -1.554677   -0.266502    0.416547
  C     -0.317578   -0.940386   -0.163395
  N      0.893287   -0.139964    0.008539
  O      0.958518    0.645713    0.928622
  O      1.798243   -0.326662   -0.783334
  H     -2.147121    0.696606   -1.429264
  H     -2.871346    1.393078    0.019351
  H     -1.185300    1.720799   -0.357092
  H     -2.366723   -0.992592    0.415295
  H     -1.355221    0.024531    1.448481
  H     -0.125552   -1.887959    0.349258
  H     -0.415717   -1.143008   -1.231625

 Total Charge           Charge          ....    0
 Multiplicity           Mult            ....    1
 Number of Electrons    NEL             ....   48
 Basis Dimension        Dim             ....   98

ORBITAL ENERGIES
----------------

  NO   OCC          E(Eh)            E(eV)
   0   2.0000     -18.785500      -511.1795
   1   2.0000     -18.780299      -511.0379
   2   2.0000     -14.207462      -386.6047
   3   2.0000      -9.949525      -270.7404
   4   2.0000      -9.909721      -269.6572
   5   2.0000      -9.890074      -269.1226
   6   2.0000      -1.135150       -30.8890
   7   2.0000      -0.964176       -26.2366
   8   2.0000      -0.768969       -20.9247
   9   2.0000      -0.682025       -18.5588
  10   2.0000      -0.582966       -15.8633
  11   2.0000      -0.519274       -14.1302
  12   2.0000      -0.505705       -13.7609
  13   2.0000      -0.482372       -13.1260
  14   2.0000      -0.450374       -12.2553
  15   2.0000      -0.415476       -11.3057
  16   2.0000      -0.406854       -11.0711
  17   2.0000      -0.380031       -10.3412
  18   2.0000      -0.329096        -8.9552
  19   2.0000      -0.326195        -8.8762
  20   2.0000      -0.318511        -8.6671
  21   2.0000      -0.275123        -7.4865
  22   2.0000      -0.256843        -6.9890
  23   2.0000      -0.234362        -6.3773
  24   0.0000      -0.097396        -2.6503
  25   0.0000       0.026917         0.7324
  26   0.0000       0.067540         1.8379
  27   0.0000       0.069985         1.9044
  28   0.0000       0.088425         2.4062

MULLIKEN ATOMIC CHARGES
-----------------------
   0 C :   -0.295201
   1 C :   -0.200010
   2 C :   -0.070105
   3 N :    0.180967
   4 O :   -0.209979
   5 O :   -0.220698
   6 H :    0.102747
   7 H :    0.115452
   8 H :    0.120094
   9 H :    0.100614
  10 H :    0.117775
  11 H :    0.139898
  12 H :    0.118446
Sum of atomic charges:    0.0000000

LOEWDIN ATOMIC CHARGES
----------------------
   0 C :   -0.344758
   1 C :   -0.249209
   2 C :   -0.185529
   3 N :    0.238881
   4 O :   -0.181386
   5 O :   -0.189735
   6 H :    0.118813
   7 H :    0.126473
   8 H :    0.123874
   9 H :    0.127911
  10 H :    0.131675
  11 H :    0.147172
  12 H :    0.135817

  Mayer bond orders larger than 0.100000
B(  0-C ,  1-C ) :   1.1475 B(  0-C ,  6-H ) :   0.9544 B(  0-C ,  7-H ) :   0.9525
B(  0-C ,  8-H ) :   0.9524 B(  1-C ,  2-C ) :   1.1078 B(  1-C ,  9-H ) :   0.9136
B(  1-C , 10-H ) :   0.9081 B(  2-C ,  3-N ) :   0.8976 B(  2-C , 11-H ) :   0.9072
B(  2-C , 12-H ) :   0.9185 B(  3-N ,  4-O ) :   1.5480 B(  3-N ,  5-O ) :   1.5435
B(  4-O ,  5-O ) :   0.3101

Dispersion correction           -0.008797251
FINAL SINGLE POINT ENERGY      -322.969851107138

DIPOLE MOMENT
-------------

Method             : SCF
Type of density    : Electron Density
Multiplicity       :   1
Irrep              :   0
Energy             :  -323.0208032008612236 Eh
Relativity type    :
Basis              : AO
                                X                 Y                 Z
Electronic contribution:      8.609362044      -0.440108319       0.675617560
Nuclear contribution   :     -9.774000846      -0.172921765      -0.734822704
                        -----------------------------------------
Total Dipole Moment    :     -1.164638803      -0.613030084      -0.059205144
                        -----------------------------------------
Magnitude (a.u.)       :      1.317457655
Magnitude (Debye)      :      3.348711233

Rotational constants in cm-1:             0.229790             0.081087             0.075177
Rotational constants in MHz :          6888.939689          2430.935897          2253.739298

                             ****ORCA TERMINATED NORMALLY****
TOTAL RUN TIME: 0 days 0 hours 0 minutes 9 seconds 808 msec
