                         Program Version 6.0.0  -   RELEASE  -
|  1> ! r2scan-3c def2/J RI DEFGRID2 scfconv6 printgap
|  2> %output
|  3>     printlevel normal
|  4> end
|  5> * xyz 0 1
|  6> C -4.4695362473 -1.2470250727 -0.2242204135
|  7> C -3.6425631979 -2.3616247178 -0.2473926326
|  8> C -2.2706750387 -2.2075084987 -0.1723116467
|  9> C -1.7006187331 -0.9400980081 -0.0738884791
| 10> C -2.5357039592 0.1824735004 -0.0511688507
| 11> C -3.9176614039 0.0161020151 -0.1263558691
| 12> C -1.9739591004 1.5351790197 0.0505913458
| 13> O -2.6962101982 2.5300118807 0.0806011366
| 14> C -0.5059937756 1.6429453609 0.113101394
| 15> C 0.0249847668 2.9191106366 0.1943211583
| 16> C 1.40346233 3.1065829873 0.2533334607
| 17> C 2.2455835637 2.027605026 0.2346606332
| 18> C 1.7482148083 0.7025383189 0.1585862024
| 19> C 0.3345454783 0.505359848 0.0922748039
| 20> C -0.2297069317 -0.8245692016 0.0041934726
| 21> O 0.4559726585 -1.8605433095 -0.0098533783
| 22> N 2.590821001 -0.3339643143 0.1521835808
| 23> C 4.0300816361 -0.2596716427 0.204770475
| 24> C 4.6026332805 -1.6759841436 0.3108499483
| 25> O 4.2282562812 -2.5012293658 -0.7668438981
| 26> H -5.5401588609 -1.3644134799 -0.282355335
| 27> H -4.0682404532 -3.3498543597 -0.3238894237
| 28> H -1.6097919351 -3.0615957163 -0.1884244089
| 29> H -4.5365258952 0.9010136723 -0.105995441
| 30> H -0.6553863489 3.7566219006 0.2082309361
| 31> H 1.8043716788 4.1062433295 0.3120697576
| 32> H 3.3103296666 2.1825626007 0.276526426
| 33> H 2.1794536988 -1.2596350696 0.049129322
| 34> H 4.3534761347 0.311719337 1.0803907383
| 35> H 4.4175814352 0.2294430445 -0.6978898715
| 36> H 4.2066720477 -2.1677967813 1.202052751
| 37> H 5.6945934645 -1.6182757896 0.3974538001
| 38> H 4.5942521763 -2.145057476 -1.5885196167
| 39> *
| 40>
| 41>                          ****END OF INPUT****

CARTESIAN COORDINATES (ANGSTROEM)
---------------------------------
  C     -4.469536   -1.247025   -0.224220
  C     -3.642563   -2.361625   -0.247393
  C     -2.270675   -2.207508   -0.172312
  C     -1.700619   -0.940098   -0.073888
  C     -2.535704    0.182474   -0.051169
  C     -3.917661    0.016102   -0.126356
  C     -1.973959    1.535179    0.050591
  O     -2.696210    2.530012    0.080601
  C     -0.505994    1.642945    0.113101
  C      0.024985    2.919111    0.194321
  C      1.403462    3.106583    0.253333
  C      2.245584    2.027605    0.234661
  C      1.748215    0.702538    0.158586
  C      0.334545    0.505360    0.092275
  C     -0.229707   -0.824569    0.004193
  O      0.455973   -1.860543   -0.009853
  N      2.590821   -0.333964    0.152184
  C      4.030082   -0.259672    0.204770
  C      4.602633   -1.675984    0.310850
  O      4.228256   -2.501229   -0.766844
  H     -5.540159   -1.364413   -0.282355
  H     -4.068240   -3.349854   -0.323889
  H     -1.609792   -3.061596   -0.188424
  H     -4.536526    0.901014   -0.105995
  H     -0.655386    3.756622    0.208231
  H      1.804372    4.106243    0.312070
  H      3.310330    2.182563    0.276526
  H      2.179454   -1.259635    0.049129
  H      4.353476    0.311719    1.080391
  H      4.417581    0.229443   -0.697890
  H      4.206672   -2.167797    1.202053
  H      5.694593   -1.618276    0.397454
  H      4.594252   -2.145057   -1.588520

 Total Charge           Charge          ....    0
 Multiplicity           Mult            ....    1
 Number of Electrons    NEL             ....  140
 Basis Dimension        Dim             ....  465

ORBITAL ENERGIES
----------------

  NO   OCC          E(Eh)            E(eV)
   0   2.0000     -18.967380      -516.1286
   1   2.0000     -18.937864      -515.3255
   2   2.0000     -18.935580      -515.2633
   3   2.0000     -14.186674      -386.0390
   4   2.0000     -10.120753      -275.3997
   5   2.0000     -10.119684      -275.3706
   6   2.0000     -10.100871      -274.8587
   7   2.0000     -10.098937      -274.8061
   8   2.0000     -10.086630      -274.4711
   9   2.0000     -10.056671      -273.6559
  10   2.0000     -10.056354      -273.6473
  11   2.0000     -10.054646      -273.6008
  12   2.0000     -10.054419      -273.5946
  13   2.0000     -10.053608      -273.5726
  14   2.0000     -10.051435      -273.5135
  15   2.0000     -10.050509      -273.4883
  16   2.0000     -10.049123      -273.4505
  17   2.0000     -10.047908      -273.4175
  18   2.0000     -10.046723      -273.3852
  19   2.0000     -10.038676      -273.1663
  20   2.0000      -1.006824       -27.3971
  21   2.0000      -1.002406       -27.2769
  22   2.0000      -0.999408       -27.1953
  23   2.0000      -0.927337       -25.2341
  24   2.0000      -0.848150       -23.0793
  25   2.0000      -0.832083       -22.6421
  26   2.0000      -0.772125       -21.0106
  27   2.0000      -0.750801       -20.4303
  28   2.0000      -0.734485       -19.9863
  29   2.0000      -0.729927       -19.8623
  30   2.0000      -0.698640       -19.0110
  31   2.0000      -0.648854       -17.6562
  32   2.0000      -0.632748       -17.2180
  33   2.0000      -0.617808       -16.8114
  34   2.0000      -0.600608       -16.3434
  35   2.0000      -0.572031       -15.5658
  36   2.0000      -0.550448       -14.9785
  37   2.0000      -0.523683       -14.2501
  38   2.0000      -0.518334       -14.1046
  39   2.0000      -0.493788       -13.4367
  40   2.0000      -0.481639       -13.1061
  41   2.0000      -0.464080       -12.6282
  42   2.0000      -0.457873       -12.4594
  43   2.0000      -0.451833       -12.2950
  44   2.0000      -0.443465       -12.0673
  45   2.0000      -0.436214       -11.8700
  46   2.0000      -0.420817       -11.4510
  47   2.0000      -0.415367       -11.3027
  48   2.0000      -0.405229       -11.0268
  49   2.0000      -0.402385       -10.9495
  50   2.0000      -0.396864       -10.7992
  51   2.0000      -0.392040       -10.6679
  52   2.0000      -0.390878       -10.6363
  53   2.0000      -0.382526       -10.4091
  54   2.0000      -0.369443       -10.0530
  55   2.0000      -0.359644        -9.7864
  56   2.0000      -0.353880        -9.6296
  57   2.0000      -0.344556        -9.3759
  58   2.0000      -0.332490        -9.0475
  59   2.0000      -0.329635        -8.9698
  60   2.0000      -0.320585        -8.7235
  61   2.0000      -0.314102        -8.5472
  62   2.0000      -0.292094        -7.9483
  63   2.0000      -0.260114        -7.0781
  64   2.0000      -0.258333        -7.0296
  65   2.0000      -0.249638        -6.7930
  66   2.0000      -0.247660        -6.7392
  67   2.0000      -0.230660        -6.2766
  68   2.0000      -0.219333        -5.9684
  69   2.0000      -0.195784        -5.3275
  70   0.0000      -0.126688        -3.4474
  71   0.0000      -0.076354        -2.0777
  72   0.0000      -0.047751        -1.2994
  73   0.0000      -0.025967        -0.7066
  74   0.0000       0.026061         0.7092

MULLIKEN ATOMIC CHARGES
-----------------------
   0 C :   -0.132297
   1 C :   -0.127292
   2 C :   -0.224959
   3 C :    0.192926
   4 C :    0.138736
   5 C :   -0.216610
   6 C :    0.034398
   7 O :   -0.354313
   8 C :    0.195903
   9 C :   -0.254611
  10 C :   -0.140904
  11 C :   -0.278781
  12 C :    0.287883
  13 C :   -0.133290
  14 C :    0.011830
  15 O :   -0.439615
  16 N :   -0.042386
  17 C :   -0.272295
  18 C :   -0.194080
  19 O :   -0.413025
  20 H :    0.148655
  21 H :    0.148617
  22 H :    0.183228
  23 H :    0.181631
  24 H :    0.184737
  25 H :    0.146721
  26 H :    0.140874
  27 H :    0.339231
  28 H :    0.146270
  29 H :    0.155405
  30 H :    0.150485
  31 H :    0.137372
  32 H :    0.299552
Sum of atomic charges:    0.0000000

LOEWDIN ATOMIC CHARGES
----------------------
   0 C :   -0.144356
   1 C :   -0.140450
   2 C :   -0.101557
   3 C :   -0.025446
   4 C :   -0.036365
   5 C :   -0.097669
   6 C :    0.269962
   7 O :   -0.480363
   8 C :   -0.023904
   9 C :   -0.125776
  10 C :   -0.127792
  11 C :   -0.140634
  12 C :    0.202951
  13 C :   -0.034360
  14 C :    0.269918
  15 O :   -0.527138
  16 N :   -0.680979
  17 C :   -0.032999
  18 C :    0.030656
  19 O :   -0.593336
  20 H :    0.170318
  21 H :    0.170346
  22 H :    0.193468
  23 H :    0.191558
  24 H :    0.193450
  25 H :    0.171486
  26 H :    0.175256
  27 H :    0.303311
  28 H :    0.181801
  29 H :    0.172781
  30 H :    0.185090
  31 H :    0.162844
  32 H :    0.267928

  Mayer bond orders larger than 0.100000
B(  0-C ,  1-C ) :   1.3212 B(  0-C ,  5-C ) :   1.3575 B(  0-C , 20-H ) :   0.9556
B(  1-C ,  2-C ) :   1.3490 B(  1-C , 21-H ) :   0.9558 B(  2-C ,  3-C ) :   1.3578
B(  2-C , 15-O ) :   0.1034 B(  2-C , 22-H ) :   0.9598 B(  3-C ,  4-C ) :   1.5244
B(  3-C , 14-C ) :   0.9221 B(  3-C , 15-O ) :  -0.2073 B(  4-C ,  5-C ) :   1.3489
B(  4-C ,  6-C ) :   0.8553 B(  4-C ,  7-O ) :  -0.2242 B(  5-C ,  7-O ) :   0.1083
B(  5-C , 23-H ) :   0.9630 B(  6-C ,  7-O ) :   2.1022 B(  6-C ,  8-C ) :   0.8642
B(  7-O ,  8-C ) :  -0.2181 B(  7-O ,  9-C ) :   0.1227 B(  8-C ,  9-C ) :   1.3962
B(  8-C , 13-C ) :   1.2801 B(  9-C , 10-C ) :   1.2478 B(  9-C , 24-H ) :   0.9663
B( 10-C , 11-C ) :   1.3717 B( 10-C , 25-H ) :   0.9656 B( 11-C , 12-C ) :   1.1186
B( 11-C , 26-H ) :   0.9549 B( 12-C , 13-C ) :   1.2681 B( 12-C , 14-C ) :  -0.1127
B( 12-C , 16-N ) :   1.3196 B( 13-C , 14-C ) :   0.9280 B( 13-C , 15-O ) :  -0.1327
B( 14-C , 15-O ) :   1.8973 B( 16-N , 17-C ) :   0.8318 B( 16-N , 27-H ) :   0.8181
B( 17-C , 18-C ) :   0.9694 B( 17-C , 28-H ) :   0.9330 B( 17-C , 29-H ) :   0.9470
B( 18-C , 19-O ) :   0.9701 B( 18-C , 30-H ) :   0.9716 B( 18-C , 31-H ) :   0.9747
B( 19-O , 32-H ) :   0.8949

Dispersion correction           -0.015553141
FINAL SINGLE POINT ENERGY      -897.785490401681

DIPOLE MOMENT
-------------

Method             : SCF
Type of density    : Electron Density
Multiplicity       :   1
Irrep              :   0
Energy             :  -897.7861430221150840 Eh
Relativity type    :
Basis              : AO
                                X                 Y                 Z
Electronic contribution:    -11.854235539       3.209823117      -0.416831192
Nuclear contribution   :     13.319388492      -3.292881530       0.308361911
                        -----------------------------------------
Total Dipole Moment    :      1.465152953      -0.083058412      -0.108469281
                        -----------------------------------------
Magnitude (a.u.)       :      1.471508566
Magnitude (Debye)      :      3.740277531

Rotational constants in cm-1:             0.019056             0.008023             0.005703
Rotational constants in MHz :           571.281820           240.513843           170.974891

                             ****ORCA TERMINATED NORMALLY****
TOTAL RUN TIME: 0 days 0 hours 2 minutes 8 seconds 307 msec
