                         Program Version 6.0.0  -   RELEASE  -
|  1> ! r2scan-3c def2/J RI DEFGRID2 scfconv6 printgap
|  2> %output
|  3>     printlevel normal
|  4> end
|  5> %cpcm
|  6>     smd true
|  7>     smdsolvent "water"
|  8> end
|  9> * xyz 0 1
| 10> C -4.4695362473 -1.2470250727 -0.2242204135
| 11> C -3.6425631979 -2.3616247178 -0.2473926326
| 12> C -2.2706750387 -2.2075084987 -0.1723116467
| 13> C -1.7006187331 -0.9400980081 -0.0738884791
| 14> C -2.5357039592 0.1824735004 -0.0511688507
| 15> C -3.9176614039 0.0161020151 -0.1263558691
| 16> C -1.9739591004 1.5351790197 0.0505913458
| 17> O -2.6962101982 2.5300118807 0.0806011366
| 18> C -0.5059937756 1.6429453609 0.113101394
| 19> C 0.0249847668 2.9191106366 0.1943211583
| 20> C 1.40346233 3.1065829873 0.2533334607
| 21> C 2.2455835637 2.027605026 0.2346606332
| 22> C 1.7482148083 0.7025383189 0.1585862024
| 23> C 0.3345454783 0.505359848 0.0922748039
| 24> C -0.2297069317 -0.8245692016 0.0041934726
| 25> O 0.4559726585 -1.8605433095 -0.0098533783
| 26> N 2.590821001 -0.3339643143 0.1521835808
| 27> C 4.0300816361 -0.2596716427 0.204770475
| 28> C 4.6026332805 -1.6759841436 0.3108499483
| 29> O 4.2282562812 -2.5012293658 -0.7668438981
| 30> H -5.5401588609 -1.3644134799 -0.282355335
| 31> H -4.0682404532 -3.3498543597 -0.3238894237
| 32> H -1.6097919351 -3.0615957163 -0.1884244089
| 33> H -4.5365258952 0.9010136723 -0.105995441
| 34> H -0.6553863489 3.7566219006 0.2082309361
| 35> H 1.8043716788 4.1062433295 0.3120697576
| 36> H 3.3103296666 2.1825626007 0.276526426
| 37> H 2.1794536988 -1.2596350696 0.049129322
| 38> H 4.3534761347 0.311719337 1.0803907383
| 39> H 4.4175814352 0.2294430445 -0.6978898715
| 40> H 4.2066720477 -2.1677967813 1.202052751
| 41> H 5.6945934645 -1.6182757896 0.3974538001
| 42> H 4.5942521763 -2.145057476 -1.5885196167
| 43> *
| 44>
| 45>                          ****END OF INPUT****

CARTESIAN COORDINATES (ANGSTROEM)
---------------------------------
  C     -4.469536   -1.247025   -0.224220
  C     -3.642563   -2.361625   -0.247393
  C     -2.270675   -2.207508   -0.172312
  C     -1.700619   -0.940098   -0.073888
  C     -2.535704    0.182474   -0.051169
  C     -3.917661    0.016102   -0.126356
  C     -1.973959    1.535179    0.050591
  O     -2.696210    2.530012    0.080601
  C     -0.505994    1.642945    0.113101
  C      0.024985    2.919111    0.194321
  C      1.403462    3.106583    0.253333
  C      2.245584    2.027605    0.234661
  C      1.748215    0.702538    0.158586
  C      0.334545    0.505360    0.092275
  C     -0.229707   -0.824569    0.004193
  O      0.455973   -1.860543   -0.009853
  N      2.590821   -0.333964    0.152184
  C      4.030082   -0.259672    0.204770
  C      4.602633   -1.675984    0.310850
  O      4.228256   -2.501229   -0.766844
  H     -5.540159   -1.364413   -0.282355
  H     -4.068240   -3.349854   -0.323889
  H     -1.609792   -3.061596   -0.188424
  H     -4.536526    0.901014   -0.105995
  H     -0.655386    3.756622    0.208231
  H      1.804372    4.106243    0.312070
  H      3.310330    2.182563    0.276526
  H      2.179454   -1.259635    0.049129
  H      4.353476    0.311719    1.080391
  H      4.417581    0.229443   -0.697890
  H      4.206672   -2.167797    1.202053
  H      5.694593   -1.618276    0.397454
  H      4.594252   -2.145057   -1.588520

 Total Charge           Charge          ....    0
 Multiplicity           Mult            ....    1
 Number of Electrons    NEL             ....  140
 Basis Dimension        Dim             ....  465

ORBITAL ENERGIES
----------------

  NO   OCC          E(Eh)            E(eV)
   0   2.0000     -18.956610      -515.8356
   1   2.0000     -18.949004      -515.6286
   2   2.0000     -18.945894      -515.5440
   3   2.0000     -14.184724      -385.9860
   4   2.0000     -10.131765      -275.6993
   5   2.0000     -10.127124      -275.5730
   6   2.0000     -10.099843      -274.8307
   7   2.0000     -10.078858      -274.2597
   8   2.0000     -10.064860      -273.8788
   9   2.0000     -10.059923      -273.7444
  10   2.0000     -10.059886      -273.7434
  11   2.0000     -10.058198      -273.6975
  12   2.0000     -10.056004      -273.6378
  13   2.0000     -10.050019      -273.4749
  14   2.0000     -10.049839      -273.4700
  15   2.0000     -10.049626      -273.4642
  16   2.0000     -10.048158      -273.4243
  17   2.0000     -10.047885      -273.4168
  18   2.0000     -10.045615      -273.3551
  19   2.0000     -10.041772      -273.2505
  20   2.0000      -1.015886       -27.6437
  21   2.0000      -1.011302       -27.5189
  22   2.0000      -0.994616       -27.0649
  23   2.0000      -0.923096       -25.1187
  24   2.0000      -0.850991       -23.1566
  25   2.0000      -0.832501       -22.6535
  26   2.0000      -0.772788       -21.0286
  27   2.0000      -0.743111       -20.2211
  28   2.0000      -0.736840       -20.0504
  29   2.0000      -0.729987       -19.8640
  30   2.0000      -0.691561       -18.8183
  31   2.0000      -0.651274       -17.7221
  32   2.0000      -0.627853       -17.0847
  33   2.0000      -0.613630       -16.6977
  34   2.0000      -0.594790       -16.1851
  35   2.0000      -0.569538       -15.4979
  36   2.0000      -0.552154       -15.0249
  37   2.0000      -0.520087       -14.1523
  38   2.0000      -0.517648       -14.0859
  39   2.0000      -0.488170       -13.2838
  40   2.0000      -0.477435       -12.9917
  41   2.0000      -0.461946       -12.5702
  42   2.0000      -0.449448       -12.2301
  43   2.0000      -0.444722       -12.1015
  44   2.0000      -0.440805       -11.9949
  45   2.0000      -0.432531       -11.7698
  46   2.0000      -0.420650       -11.4465
  47   2.0000      -0.418895       -11.3987
  48   2.0000      -0.411584       -11.1998
  49   2.0000      -0.406072       -11.0498
  50   2.0000      -0.398184       -10.8351
  51   2.0000      -0.386895       -10.5279
  52   2.0000      -0.386320       -10.5123
  53   2.0000      -0.382848       -10.4178
  54   2.0000      -0.376980       -10.2581
  55   2.0000      -0.356188        -9.6924
  56   2.0000      -0.348768        -9.4905
  57   2.0000      -0.344566        -9.3761
  58   2.0000      -0.336032        -9.1439
  59   2.0000      -0.329221        -8.9586
  60   2.0000      -0.322217        -8.7680
  61   2.0000      -0.302105        -8.2207
  62   2.0000      -0.289842        -7.8870
  63   2.0000      -0.264512        -7.1977
  64   2.0000      -0.251889        -6.8542
  65   2.0000      -0.251685        -6.8487
  66   2.0000      -0.250664        -6.8209
  67   2.0000      -0.243652        -6.6301
  68   2.0000      -0.230669        -6.2768
  69   2.0000      -0.195355        -5.3159
  70   0.0000      -0.133565        -3.6345
  71   0.0000      -0.079850        -2.1728
  72   0.0000      -0.048515        -1.3202
  73   0.0000      -0.027337        -0.7439
  74   0.0000       0.024880         0.6770

MULLIKEN ATOMIC CHARGES
-----------------------
   0 C :   -0.169817
   1 C :   -0.158830
   2 C :   -0.240548
   3 C :    0.200908
   4 C :    0.138781
   5 C :   -0.227850
   6 C :    0.078270
   7 O :   -0.441221
   8 C :    0.186776
   9 C :   -0.258589
  10 C :   -0.190010
  11 C :   -0.267249
  12 C :    0.276935
  13 C :   -0.138607
  14 C :    0.027683
  15 O :   -0.504183
  16 N :   -0.060049
  17 C :   -0.262873
  18 C :   -0.196096
  19 O :   -0.494741
  20 H :    0.185231
  21 H :    0.185461
  22 H :    0.197228
  23 H :    0.195901
  24 H :    0.196807
  25 H :    0.183733
  26 H :    0.182519
  27 H :    0.346864
  28 H :    0.173536
  29 H :    0.183858
  30 H :    0.161544
  31 H :    0.156181
  32 H :    0.352448
Sum of atomic charges:    0.0000000

LOEWDIN ATOMIC CHARGES
----------------------
   0 C :   -0.139460
   1 C :   -0.132158
   2 C :   -0.108671
   3 C :   -0.027633
   4 C :   -0.042439
   5 C :   -0.102013
   6 C :    0.276908
   7 O :   -0.549219
   8 C :   -0.032242
   9 C :   -0.128045
  10 C :   -0.124573
  11 C :   -0.120370
  12 C :    0.202154
  13 C :   -0.040114
  14 C :    0.270138
  15 O :   -0.580204
  16 N :   -0.671430
  17 C :   -0.021652
  18 C :    0.033802
  19 O :   -0.629662
  20 H :    0.184248
  21 H :    0.184449
  22 H :    0.196652
  23 H :    0.195005
  24 H :    0.195644
  25 H :    0.186045
  26 H :    0.192959
  27 H :    0.301501
  28 H :    0.195015
  29 H :    0.188084
  30 H :    0.186853
  31 H :    0.174144
  32 H :    0.286282

  Mayer bond orders larger than 0.100000
B(  0-C ,  1-C ) :   1.3097 B(  0-C ,  5-C ) :   1.3535 B(  0-C , 20-H ) :   0.9605
B(  1-C ,  2-C ) :   1.3399 B(  1-C , 21-H ) :   0.9603 B(  2-C ,  3-C ) :   1.2984
B(  2-C , 15-O ) :   0.1006 B(  2-C , 22-H ) :   0.9725 B(  3-C ,  4-C ) :   1.5118
B(  3-C , 14-C ) :   0.9165 B(  3-C , 15-O ) :  -0.2067 B(  4-C ,  5-C ) :   1.2879
B(  4-C ,  6-C ) :   0.8650 B(  4-C ,  7-O ) :  -0.2235 B(  5-C ,  7-O ) :   0.1042
B(  5-C , 23-H ) :   0.9737 B(  6-C ,  7-O ) :   2.0609 B(  6-C ,  8-C ) :   0.8749
B(  7-O ,  8-C ) :  -0.2169 B(  7-O ,  9-C ) :   0.1215 B(  8-C ,  9-C ) :   1.3294
B(  8-C , 13-C ) :   1.2633 B(  9-C , 10-C ) :   1.2265 B(  9-C , 24-H ) :   0.9811
B( 10-C , 11-C ) :   1.3690 B( 10-C , 25-H ) :   0.9767 B( 11-C , 12-C ) :   1.0978
B( 11-C , 26-H ) :   0.9631 B( 12-C , 13-C ) :   1.2307 B( 12-C , 14-C ) :  -0.1038
B( 12-C , 16-N ) :   1.3374 B( 13-C , 14-C ) :   0.9482 B( 13-C , 15-O ) :  -0.1383
B( 14-C , 15-O ) :   1.8771 B( 16-N , 17-C ) :   0.8441 B( 16-N , 27-H ) :   0.8200
B( 17-C , 18-C ) :   0.9654 B( 17-C , 28-H ) :   0.9280 B( 17-C , 29-H ) :   0.9324
B( 18-C , 19-O ) :   0.9586 B( 18-C , 30-H ) :   0.9733 B( 18-C , 31-H ) :   0.9628
B( 19-O , 32-H ) :   0.8679

Dispersion correction           -0.015553141
FINAL SINGLE POINT ENERGY      -897.807433025775

DIPOLE MOMENT
-------------

Method             : SCF
Type of density    : Electron Density
Multiplicity       :   1
Irrep              :   0
Energy             :  -897.8080856462091788 Eh
Relativity type    :
Basis              : AO
                                X                 Y                 Z
Electronic contribution:    -11.038276444       3.389401215      -0.429704053
Nuclear contribution   :     13.319388492      -3.292881530       0.308361911
                        -----------------------------------------
Total Dipole Moment    :      2.281112049       0.096519686      -0.121342142
                        -----------------------------------------
Magnitude (a.u.)       :      2.286375329
Magnitude (Debye)      :      5.811504238

Rotational constants in cm-1:             0.019056             0.008023             0.005703
Rotational constants in MHz :           571.281820           240.513843           170.974891

                             ****ORCA TERMINATED NORMALLY****
TOTAL RUN TIME: 0 days 0 hours 2 minutes 36 seconds 613 msec
