                         Program Version 6.0.0  -   RELEASE  -
|  1> ! r2scan-3c def2/J RI DEFGRID2 scfconv6 printgap
|  2> %output
|  3>     printlevel normal
|  4> end
|  5> %cpcm
|  6>     smd true
|  7>     smdsolvent "water"
|  8> end
|  9> * xyz 0 1
| 10> C 2.1441732067 -0.26523572 0.5807757859
| 11> C 1.3687483928 0.4575213477 -0.5157560871
| 12> C -0.0413210177 -0.0944056532 -0.7230683682
| 13> C -0.9752327768 0.1636678234 0.4583105274
| 14> N -2.3449898116 -0.1806520202 0.0919439574
| 15> H 2.1830396481 -1.3332020741 0.3777069677
| 16> H 3.1629141089 0.111352816 0.6314129097
| 17> H 1.6792976181 -0.1149061996 1.5515651908
| 18> H 1.3062609732 1.5210362223 -0.2759447617
| 19> H 1.9167743835 0.3615628117 -1.4554739746
| 20> H -0.4854492055 0.3732308368 -1.6032856182
| 21> H 0.0130978938 -1.1698648868 -0.9092213918
| 22> H -0.9615296061 1.2294948104 0.7055198692
| 23> H -0.6203029881 -0.3926820866 1.3413533239
| 24> H -2.9612278064 -0.0255655845 0.8818357308
| 25> H -2.3936101242 -1.1667786707 -0.1429547069
| 26> *
| 27>
| 28>                          ****END OF INPUT****

CARTESIAN COORDINATES (ANGSTROEM)
---------------------------------
  C      2.144173   -0.265236    0.580776
  C      1.368748    0.457521   -0.515756
  C     -0.041321   -0.094406   -0.723068
  C     -0.975233    0.163668    0.458311
  N     -2.344990   -0.180652    0.091944
  H      2.183040   -1.333202    0.377707
  H      3.162914    0.111353    0.631413
  H      1.679298   -0.114906    1.551565
  H      1.306261    1.521036   -0.275945
  H      1.916774    0.361563   -1.455474
  H     -0.485449    0.373231   -1.603286
  H      0.013098   -1.169865   -0.909221
  H     -0.961530    1.229495    0.705520
  H     -0.620303   -0.392682    1.341353
  H     -2.961228   -0.025566    0.881836
  H     -2.393610   -1.166779   -0.142955

 Total Charge           Charge          ....    0
 Multiplicity           Mult            ....    1
 Number of Electrons    NEL             ....   42
 Basis Dimension        Dim             ....  155

ORBITAL ENERGIES
----------------

  NO   OCC          E(Eh)            E(eV)
   0   2.0000     -14.127290      -384.4231
   1   2.0000     -10.040034      -273.2032
   2   2.0000     -10.016640      -272.5666
   3   2.0000     -10.013280      -272.4752
   4   2.0000     -10.006688      -272.2958
   5   2.0000      -0.838930       -22.8284
   6   2.0000      -0.745262       -20.2796
   7   2.0000      -0.661514       -18.0007
   8   2.0000      -0.585566       -15.9341
   9   2.0000      -0.529103       -14.3976
  10   2.0000      -0.439704       -11.9650
  11   2.0000      -0.431389       -11.7387
  12   2.0000      -0.417211       -11.3529
  13   2.0000      -0.370906       -10.0929
  14   2.0000      -0.368057       -10.0153
  15   2.0000      -0.345402        -9.3989
  16   2.0000      -0.316195        -8.6041
  17   2.0000      -0.292131        -7.9493
  18   2.0000      -0.288785        -7.8582
  19   2.0000      -0.283519        -7.7150
  20   2.0000      -0.203667        -5.5421
  21   0.0000       0.085983         2.3397
  22   0.0000       0.100274         2.7286
  23   0.0000       0.124766         3.3950
  24   0.0000       0.138072         3.7571
  25   0.0000       0.144878         3.9423

MULLIKEN ATOMIC CHARGES
-----------------------
   0 C :   -0.523950
   1 C :   -0.254786
   2 C :   -0.219636
   3 C :   -0.267374
   4 N :   -0.638074
   5 H :    0.154312
   6 H :    0.154438
   7 H :    0.159180
   8 H :    0.142619
   9 H :    0.148493
  10 H :    0.149651
  11 H :    0.143543
  12 H :    0.151671
  13 H :    0.139847
  14 H :    0.279509
  15 H :    0.280556
Sum of atomic charges:    0.0000000

LOEWDIN ATOMIC CHARGES
----------------------
   0 C :   -0.436531
   1 C :   -0.318811
   2 C :   -0.291857
   3 C :   -0.077432
   4 N :   -0.770015
   5 H :    0.152670
   6 H :    0.152002
   7 H :    0.151418
   8 H :    0.154079
   9 H :    0.154079
  10 H :    0.160072
  11 H :    0.156804
  12 H :    0.171756
  13 H :    0.153185
  14 H :    0.244523
  15 H :    0.244058

  Mayer bond orders larger than 0.100000
B(  0-C ,  1-C ) :   0.8976 B(  0-C ,  5-H ) :   0.9788 B(  0-C ,  6-H ) :   0.9679
B(  0-C ,  7-H ) :   0.9786 B(  1-C ,  2-C ) :   0.9036 B(  1-C ,  8-H ) :   0.9826
B(  1-C ,  9-H ) :   0.9690 B(  2-C ,  3-C ) :   0.8976 B(  2-C , 10-H ) :   0.9622
B(  2-C , 11-H ) :   0.9605 B(  3-C ,  4-N ) :   0.9443 B(  3-C , 12-H ) :   0.9876
B(  3-C , 13-H ) :   0.9779 B(  4-N , 14-H ) :   0.9044 B(  4-N , 15-H ) :   0.9042

Dispersion correction           -0.003430244
FINAL SINGLE POINT ENERGY      -213.727309197920

DIPOLE MOMENT
-------------

Method             : SCF
Type of density    : Electron Density
Multiplicity       :   1
Irrep              :   0
Energy             :  -213.7344039526608697 Eh
Relativity type    :
Basis              : AO
                                X                 Y                 Z
Electronic contribution:     -2.467031214       0.189658930      -0.531926144
Nuclear contribution   :      2.650877551      -0.569815583       1.034839045
                        -----------------------------------------
Total Dipole Moment    :      0.183846337      -0.380156653       0.502912901
                        -----------------------------------------
Magnitude (a.u.)       :      0.656688619
Magnitude (Debye)      :      1.669169820

Rotational constants in cm-1:             0.413717             0.077410             0.071886
Rotational constants in MHz :         12402.930076          2320.698217          2155.100459

                             ****ORCA TERMINATED NORMALLY****
TOTAL RUN TIME: 0 days 0 hours 0 minutes 21 seconds 254 msec
