                         Program Version 6.0.1  -  RELEASE   -
|  1> ! r2scan-3c def2/J RI DEFGRID2 scfconv6 printgap
|  2> %output
|  3>     printlevel normal
|  4> end
|  5> * xyz 0 1
|  6> C -3.815104855 0.9269500751 -1.6283787404
|  7> C -3.3078645195 -0.1267828762 -0.6422876365
|  8> H -3.5660091895 -1.128174984 -0.9971778299
|  9> C -1.8086361055 -0.0504902502 -0.4535826326
| 10> C -1.1957266467 1.1146308877 -0.0058521396
| 11> C 0.1738627472 1.1748210882 0.1570452919
| 12> C 0.9905113564 0.0759848116 -0.1086607723
| 13> C 0.350118577 -1.0767447756 -0.5496539968
| 14> C -1.0165809809 -1.1570678349 -0.7251750533
| 15> F 1.0868809838 -2.185864296 -0.8564101924
| 16> C 2.4487277242 0.1540863057 0.0714980202
| 17> C 3.1498097152 -0.8658083959 0.7091974361
| 18> C 4.5189350106 -0.7715060816 0.8807586303
| 19> C 5.205549 0.3376782638 0.4160287018
| 20> C 4.5156167266 1.3566254661 -0.2203195925
| 21> C 3.1465359182 1.268559274 -0.3892262426
| 22> C -3.9315815968 0.0240213103 0.7325323983
| 23> O -4.2578917179 -0.9189885075 1.4231328076
| 24> O -4.055698241 1.2749054059 1.1264009156
| 25> H -4.8852867891 0.8111094836 -1.7777294885
| 26> H -3.6210551618 1.9281364559 -1.2580598725
| 27> H -3.3111423688 0.7989586331 -2.582096436
| 28> H -1.7960320917 1.9799872132 0.2251783432
| 29> H 0.6317301959 2.0827795331 0.5167029371
| 30> H -1.4449826707 -2.0829855704 -1.0752267674
| 31> H 2.6200198263 -1.7298178355 1.0823569724
| 32> H 5.0503726703 -1.5678700041 1.3797302108
| 33> H 6.2744909857 0.4068058717 0.5484387305
| 34> H 5.0468087338 2.2216725931 -0.5875540955
| 35> H 2.6125458364 2.0560548117 -0.8992767329
| 36> H -4.4352314225 1.3547513449 2.0232320613
| 37> *
| 38>
| 39>                          ****END OF INPUT****

CARTESIAN COORDINATES (ANGSTROEM)
---------------------------------
  C     -3.815105    0.926950   -1.628379
  C     -3.307865   -0.126783   -0.642288
  H     -3.566009   -1.128175   -0.997178
  C     -1.808636   -0.050490   -0.453583
  C     -1.195727    1.114631   -0.005852
  C      0.173863    1.174821    0.157045
  C      0.990511    0.075985   -0.108661
  C      0.350119   -1.076745   -0.549654
  C     -1.016581   -1.157068   -0.725175
  F      1.086881   -2.185864   -0.856410
  C      2.448728    0.154086    0.071498
  C      3.149810   -0.865808    0.709197
  C      4.518935   -0.771506    0.880759
  C      5.205549    0.337678    0.416029
  C      4.515617    1.356625   -0.220320
  C      3.146536    1.268559   -0.389226
  C     -3.931582    0.024021    0.732532
  O     -4.257892   -0.918989    1.423133
  O     -4.055698    1.274905    1.126401
  H     -4.885287    0.811109   -1.777729
  H     -3.621055    1.928136   -1.258060
  H     -3.311142    0.798959   -2.582096
  H     -1.796032    1.979987    0.225178
  H      0.631730    2.082780    0.516703
  H     -1.444983   -2.082986   -1.075227
  H      2.620020   -1.729818    1.082357
  H      5.050373   -1.567870    1.379730
  H      6.274491    0.406806    0.548439
  H      5.046809    2.221673   -0.587554
  H      2.612546    2.056055   -0.899277
  H     -4.435231    1.354751    2.023232

 Total Charge           Charge          ....    0
 Multiplicity           Mult            ....    1
 Number of Electrons    NEL             ....  128
 Basis Dimension        Dim             ....  422

ORBITAL ENERGIES
----------------

  NO   OCC          E(Eh)            E(eV)
   0   2.0000     -24.497540      -666.6120
   1   2.0000     -19.014442      -517.4093
   2   2.0000     -18.937963      -515.3282
   3   2.0000     -10.167632      -276.6753
   4   2.0000     -10.125406      -275.5263
   5   2.0000     -10.067983      -273.9637
   6   2.0000     -10.063220      -273.8341
   7   2.0000     -10.058012      -273.6924
   8   2.0000     -10.052926      -273.5540
   9   2.0000     -10.049350      -273.4567
  10   2.0000     -10.047776      -273.4139
  11   2.0000     -10.042250      -273.2635
  12   2.0000     -10.039934      -273.2005
  13   2.0000     -10.038964      -273.1741
  14   2.0000     -10.038213      -273.1537
  15   2.0000     -10.037911      -273.1455
  16   2.0000     -10.037558      -273.1358
  17   2.0000     -10.037095      -273.1232
  18   2.0000      -1.180783       -32.1307
  19   2.0000      -1.088709       -29.6253
  20   2.0000      -0.984625       -26.7930
  21   2.0000      -0.854862       -23.2620
  22   2.0000      -0.832055       -22.6414
  23   2.0000      -0.791377       -21.5345
  24   2.0000      -0.746310       -20.3081
  25   2.0000      -0.727974       -19.8092
  26   2.0000      -0.720561       -19.6075
  27   2.0000      -0.695809       -18.9339
  28   2.0000      -0.649252       -17.6670
  29   2.0000      -0.617063       -16.7911
  30   2.0000      -0.603050       -16.4098
  31   2.0000      -0.579374       -15.7656
  32   2.0000      -0.573982       -15.6189
  33   2.0000      -0.558277       -15.1915
  34   2.0000      -0.513527       -13.9738
  35   2.0000      -0.490919       -13.3586
  36   2.0000      -0.478366       -13.0170
  37   2.0000      -0.464155       -12.6303
  38   2.0000      -0.453475       -12.3397
  39   2.0000      -0.450112       -12.2482
  40   2.0000      -0.444561       -12.0971
  41   2.0000      -0.432024       -11.7560
  42   2.0000      -0.421203       -11.4615
  43   2.0000      -0.419739       -11.4217
  44   2.0000      -0.413114       -11.2414
  45   2.0000      -0.402914       -10.9638
  46   2.0000      -0.393215       -10.6999
  47   2.0000      -0.386220       -10.5096
  48   2.0000      -0.377558       -10.2739
  49   2.0000      -0.369560       -10.0562
  50   2.0000      -0.361363        -9.8332
  51   2.0000      -0.354849        -9.6559
  52   2.0000      -0.345215        -9.3938
  53   2.0000      -0.335561        -9.1311
  54   2.0000      -0.334264        -9.0958
  55   2.0000      -0.327049        -8.8995
  56   2.0000      -0.316272        -8.6062
  57   2.0000      -0.308733        -8.4011
  58   2.0000      -0.295975        -8.0539
  59   2.0000      -0.265585        -7.2269
  60   2.0000      -0.243021        -6.6129
  61   2.0000      -0.241444        -6.5700
  62   2.0000      -0.241084        -6.5602
  63   2.0000      -0.216188        -5.8828
  64   0.0000      -0.064780        -1.7628
  65   0.0000      -0.040403        -1.0994
  66   0.0000      -0.035191        -0.9576
  67   0.0000      -0.027250        -0.7415
  68   0.0000      -0.005257        -0.1431

MULLIKEN ATOMIC CHARGES
-----------------------
   0 C :   -0.490684
   1 C :   -0.025417
   2 H :    0.157829
   3 C :    0.165237
   4 C :   -0.237135
   5 C :   -0.202722
   6 C :    0.063670
   7 C :    0.303366
   8 C :   -0.355036
   9 F :   -0.240380
  10 C :    0.103702
  11 C :   -0.178731
  12 C :   -0.171499
  13 C :   -0.135928
  14 C :   -0.170322
  15 C :   -0.210031
  16 C :    0.285229
  17 O :   -0.377559
  18 O :   -0.332524
  19 H :    0.154776
  20 H :    0.168453
  21 H :    0.159241
  22 H :    0.166383
  23 H :    0.154964
  24 H :    0.164020
  25 H :    0.155955
  26 H :    0.146113
  27 H :    0.146950
  28 H :    0.145623
  29 H :    0.152117
  30 H :    0.334339
Sum of atomic charges:   -0.0000000

LOEWDIN ATOMIC CHARGES
----------------------
   0 C :   -0.371913
   1 C :   -0.141832
   2 H :    0.188578
   3 C :   -0.058626
   4 C :   -0.152109
   5 C :   -0.127438
   6 C :   -0.062772
   7 C :    0.238874
   8 C :   -0.133313
   9 F :   -0.287607
  10 C :   -0.062942
  11 C :   -0.131828
  12 C :   -0.158468
  13 C :   -0.163214
  14 C :   -0.160568
  15 C :   -0.146633
  16 C :    0.352393
  17 O :   -0.409889
  18 O :   -0.405685
  19 H :    0.160363
  20 H :    0.168429
  21 H :    0.161432
  22 H :    0.182202
  23 H :    0.177423
  24 H :    0.186431
  25 H :    0.178257
  26 H :    0.168553
  27 H :    0.167325
  28 H :    0.167877
  29 H :    0.173644
  30 H :    0.303056

  Mayer bond orders larger than 0.100000
B(  0-C ,  1-C ) :   0.9234 B(  0-C , 19-H ) :   0.9720 B(  0-C , 20-H ) :   0.9626
B(  0-C , 21-H ) :   0.9725 B(  1-C ,  2-H ) :   0.9617 B(  1-C ,  3-C ) :   0.8252
B(  1-C , 16-C ) :   0.9807 B(  3-C ,  4-C ) :   1.3632 B(  3-C ,  6-C ) :   0.1046
B(  3-C ,  8-C ) :   1.3898 B(  4-C ,  5-C ) :   1.4474 B(  4-C , 22-H ) :   0.9284
B(  5-C ,  6-C ) :   1.3490 B(  5-C , 23-H ) :   0.9396 B(  6-C ,  7-C ) :   1.4610
B(  6-C , 10-C ) :   0.7802 B(  7-C ,  8-C ) :   1.4194 B(  7-C ,  9-F ) :   0.8959
B(  8-C , 24-H ) :   0.9109 B( 10-C , 11-C ) :   1.4196 B( 10-C , 15-C ) :   1.3924
B( 11-C , 12-C ) :   1.4380 B( 11-C , 25-H ) :   0.9370 B( 12-C , 13-C ) :   1.4127
B( 12-C , 26-H ) :   0.9510 B( 13-C , 14-C ) :   1.4165 B( 13-C , 27-H ) :   0.9463
B( 14-C , 15-C ) :   1.4354 B( 14-C , 28-H ) :   0.9490 B( 15-C , 29-H ) :   0.9418
B( 16-C , 17-O ) :   1.9522 B( 16-C , 18-O ) :   1.0344 B( 18-O , 30-H ) :   0.8569

Dispersion correction           -0.013438138
FINAL SINGLE POINT ENERGY      -829.575412696145

DIPOLE MOMENT
-------------

Method             : SCF
Type of density    : Electron Density
Multiplicity       :   1
Irrep              :   0
Energy             :  -829.5726594564175684 Eh
Relativity type    :
Basis              : AO
                                X                 Y                 Z
Electronic contribution:      1.823315766      -7.580969244       2.196083958
Nuclear contribution   :     -1.902956953       8.720992391      -2.359944315
                        -----------------------------------------
Total Dipole Moment    :     -0.079641187       1.140023147      -0.163860357
                        -----------------------------------------
Magnitude (a.u.)       :      1.154489372
Magnitude (Debye)      :      2.934478778

Rotational constants in cm-1:             0.036492             0.006404             0.006095
Rotational constants in MHz :          1093.988387           191.975080           182.719655

                             ****ORCA TERMINATED NORMALLY****
TOTAL RUN TIME: 0 days 0 hours 1 minutes 2 seconds 8 msec
