                         Program Version 6.0.1  -  RELEASE   -
|  1> ! r2scan-3c def2/J RI DEFGRID2 scfconv6 printgap
|  2> %output
|  3>     printlevel normal
|  4> end
|  5> %cpcm
|  6>     smd true
|  7>     smdsolvent "water"
|  8> end
|  9> * xyz 0 1
| 10> C -3.815104855 0.9269500751 -1.6283787404
| 11> C -3.3078645195 -0.1267828762 -0.6422876365
| 12> H -3.5660091895 -1.128174984 -0.9971778299
| 13> C -1.8086361055 -0.0504902502 -0.4535826326
| 14> C -1.1957266467 1.1146308877 -0.0058521396
| 15> C 0.1738627472 1.1748210882 0.1570452919
| 16> C 0.9905113564 0.0759848116 -0.1086607723
| 17> C 0.350118577 -1.0767447756 -0.5496539968
| 18> C -1.0165809809 -1.1570678349 -0.7251750533
| 19> F 1.0868809838 -2.185864296 -0.8564101924
| 20> C 2.4487277242 0.1540863057 0.0714980202
| 21> C 3.1498097152 -0.8658083959 0.7091974361
| 22> C 4.5189350106 -0.7715060816 0.8807586303
| 23> C 5.205549 0.3376782638 0.4160287018
| 24> C 4.5156167266 1.3566254661 -0.2203195925
| 25> C 3.1465359182 1.268559274 -0.3892262426
| 26> C -3.9315815968 0.0240213103 0.7325323983
| 27> O -4.2578917179 -0.9189885075 1.4231328076
| 28> O -4.055698241 1.2749054059 1.1264009156
| 29> H -4.8852867891 0.8111094836 -1.7777294885
| 30> H -3.6210551618 1.9281364559 -1.2580598725
| 31> H -3.3111423688 0.7989586331 -2.582096436
| 32> H -1.7960320917 1.9799872132 0.2251783432
| 33> H 0.6317301959 2.0827795331 0.5167029371
| 34> H -1.4449826707 -2.0829855704 -1.0752267674
| 35> H 2.6200198263 -1.7298178355 1.0823569724
| 36> H 5.0503726703 -1.5678700041 1.3797302108
| 37> H 6.2744909857 0.4068058717 0.5484387305
| 38> H 5.0468087338 2.2216725931 -0.5875540955
| 39> H 2.6125458364 2.0560548117 -0.8992767329
| 40> H -4.4352314225 1.3547513449 2.0232320613
| 41> *
| 42>
| 43>                          ****END OF INPUT****

CARTESIAN COORDINATES (ANGSTROEM)
---------------------------------
  C     -3.815105    0.926950   -1.628379
  C     -3.307865   -0.126783   -0.642288
  H     -3.566009   -1.128175   -0.997178
  C     -1.808636   -0.050490   -0.453583
  C     -1.195727    1.114631   -0.005852
  C      0.173863    1.174821    0.157045
  C      0.990511    0.075985   -0.108661
  C      0.350119   -1.076745   -0.549654
  C     -1.016581   -1.157068   -0.725175
  F      1.086881   -2.185864   -0.856410
  C      2.448728    0.154086    0.071498
  C      3.149810   -0.865808    0.709197
  C      4.518935   -0.771506    0.880759
  C      5.205549    0.337678    0.416029
  C      4.515617    1.356625   -0.220320
  C      3.146536    1.268559   -0.389226
  C     -3.931582    0.024021    0.732532
  O     -4.257892   -0.918989    1.423133
  O     -4.055698    1.274905    1.126401
  H     -4.885287    0.811109   -1.777729
  H     -3.621055    1.928136   -1.258060
  H     -3.311142    0.798959   -2.582096
  H     -1.796032    1.979987    0.225178
  H      0.631730    2.082780    0.516703
  H     -1.444983   -2.082986   -1.075227
  H      2.620020   -1.729818    1.082357
  H      5.050373   -1.567870    1.379730
  H      6.274491    0.406806    0.548439
  H      5.046809    2.221673   -0.587554
  H      2.612546    2.056055   -0.899277
  H     -4.435231    1.354751    2.023232

 Total Charge           Charge          ....    0
 Multiplicity           Mult            ....    1
 Number of Electrons    NEL             ....  128
 Basis Dimension        Dim             ....  422

ORBITAL ENERGIES
----------------

  NO   OCC          E(Eh)            E(eV)
   0   2.0000     -24.502213      -666.7391
   1   2.0000     -19.005030      -517.1532
   2   2.0000     -18.946619      -515.5637
   3   2.0000     -10.171713      -276.7864
   4   2.0000     -10.124600      -275.5044
   5   2.0000     -10.059296      -273.7273
   6   2.0000     -10.058736      -273.7121
   7   2.0000     -10.056343      -273.6470
   8   2.0000     -10.052352      -273.5384
   9   2.0000     -10.044105      -273.3140
  10   2.0000     -10.043225      -273.2900
  11   2.0000     -10.036659      -273.1114
  12   2.0000     -10.036625      -273.1105
  13   2.0000     -10.036395      -273.1042
  14   2.0000     -10.035372      -273.0764
  15   2.0000     -10.035147      -273.0702
  16   2.0000     -10.034369      -273.0491
  17   2.0000     -10.022438      -272.7244
  18   2.0000      -1.186162       -32.2771
  19   2.0000      -1.084189       -29.5023
  20   2.0000      -0.989826       -26.9345
  21   2.0000      -0.852545       -23.1989
  22   2.0000      -0.830405       -22.5965
  23   2.0000      -0.785765       -21.3818
  24   2.0000      -0.742168       -20.1954
  25   2.0000      -0.724640       -19.7184
  26   2.0000      -0.718311       -19.5462
  27   2.0000      -0.691891       -18.8273
  28   2.0000      -0.638585       -17.3768
  29   2.0000      -0.610422       -16.6104
  30   2.0000      -0.599115       -16.3027
  31   2.0000      -0.573560       -15.6074
  32   2.0000      -0.570394       -15.5212
  33   2.0000      -0.555257       -15.1093
  34   2.0000      -0.510581       -13.8936
  35   2.0000      -0.487992       -13.2789
  36   2.0000      -0.475077       -12.9275
  37   2.0000      -0.463550       -12.6138
  38   2.0000      -0.455068       -12.3830
  39   2.0000      -0.447198       -12.1689
  40   2.0000      -0.441522       -12.0144
  41   2.0000      -0.433722       -11.8022
  42   2.0000      -0.419537       -11.4162
  43   2.0000      -0.415797       -11.3144
  44   2.0000      -0.406609       -11.0644
  45   2.0000      -0.395419       -10.7599
  46   2.0000      -0.388698       -10.5770
  47   2.0000      -0.379603       -10.3295
  48   2.0000      -0.371916       -10.1204
  49   2.0000      -0.368008       -10.0140
  50   2.0000      -0.355716        -9.6795
  51   2.0000      -0.353832        -9.6283
  52   2.0000      -0.338990        -9.2244
  53   2.0000      -0.335025        -9.1165
  54   2.0000      -0.327370        -8.9082
  55   2.0000      -0.317851        -8.6492
  56   2.0000      -0.311673        -8.4810
  57   2.0000      -0.305529        -8.3139
  58   2.0000      -0.298807        -8.1309
  59   2.0000      -0.266624        -7.2552
  60   2.0000      -0.250352        -6.8124
  61   2.0000      -0.242595        -6.6013
  62   2.0000      -0.239898        -6.5279
  63   2.0000      -0.216538        -5.8923
  64   0.0000      -0.063937        -1.7398
  65   0.0000      -0.038198        -1.0394
  66   0.0000      -0.035366        -0.9624
  67   0.0000      -0.028107        -0.7648
  68   0.0000      -0.004815        -0.1310

MULLIKEN ATOMIC CHARGES
-----------------------
   0 C :   -0.541363
   1 C :    0.004365
   2 H :    0.185339
   3 C :    0.126574
   4 C :   -0.260785
   5 C :   -0.213745
   6 C :    0.074685
   7 C :    0.309428
   8 C :   -0.375785
   9 F :   -0.250342
  10 C :    0.061351
  11 C :   -0.212371
  12 C :   -0.210994
  13 C :   -0.163519
  14 C :   -0.212367
  15 C :   -0.213448
  16 C :    0.307148
  17 O :   -0.465086
  18 O :   -0.347079
  19 H :    0.173866
  20 H :    0.181513
  21 H :    0.174360
  22 H :    0.193722
  23 H :    0.186462
  24 H :    0.199423
  25 H :    0.183397
  26 H :    0.178624
  27 H :    0.180436
  28 H :    0.178850
  29 H :    0.184401
  30 H :    0.382942
Sum of atomic charges:   -0.0000000

LOEWDIN ATOMIC CHARGES
----------------------
   0 C :   -0.374065
   1 C :   -0.138609
   2 H :    0.197152
   3 C :   -0.061627
   4 C :   -0.153518
   5 C :   -0.128289
   6 C :   -0.069897
   7 C :    0.229615
   8 C :   -0.136362
   9 F :   -0.299831
  10 C :   -0.074720
  11 C :   -0.146746
  12 C :   -0.168277
  13 C :   -0.171934
  14 C :   -0.167851
  15 C :   -0.149684
  16 C :    0.361618
  17 O :   -0.475935
  18 O :   -0.386887
  19 H :    0.166918
  20 H :    0.171513
  21 H :    0.166255
  22 H :    0.192024
  23 H :    0.189141
  24 H :    0.198570
  25 H :    0.185462
  26 H :    0.179355
  27 H :    0.178310
  28 H :    0.179387
  29 H :    0.185269
  30 H :    0.323645

  Mayer bond orders larger than 0.100000
B(  0-C ,  1-C ) :   0.8981 B(  0-C , 19-H ) :   0.9673 B(  0-C , 20-H ) :   0.9620
B(  0-C , 21-H ) :   0.9696 B(  1-C ,  2-H ) :   0.9615 B(  1-C ,  3-C ) :   0.8160
B(  1-C , 16-C ) :   0.9774 B(  3-C ,  4-C ) :   1.3371 B(  3-C ,  8-C ) :   1.3943
B(  4-C ,  5-C ) :   1.4494 B(  4-C , 22-H ) :   0.9365 B(  5-C ,  6-C ) :   1.3322
B(  5-C , 23-H ) :   0.9414 B(  6-C ,  7-C ) :   1.4325 B(  6-C , 10-C ) :   0.7634
B(  7-C ,  8-C ) :   1.3816 B(  7-C ,  9-F ) :   0.8938 B(  8-C , 24-H ) :   0.9214
B( 10-C , 11-C ) :   1.3767 B( 10-C , 15-C ) :   1.3729 B( 11-C , 12-C ) :   1.4133
B( 11-C , 25-H ) :   0.9460 B( 12-C , 13-C ) :   1.3797 B( 12-C , 26-H ) :   0.9595
B( 13-C , 14-C ) :   1.3800 B( 13-C , 27-H ) :   0.9522 B( 14-C , 15-C ) :   1.4126
B( 14-C , 28-H ) :   0.9588 B( 15-C , 29-H ) :   0.9467 B( 16-C , 17-O ) :   1.8783
B( 16-C , 18-O ) :   1.0818 B( 18-O , 30-H ) :   0.8326

Dispersion correction           -0.013438138
FINAL SINGLE POINT ENERGY      -829.589398205540

DIPOLE MOMENT
-------------

Method             : SCF
Type of density    : Electron Density
Multiplicity       :   1
Irrep              :   0
Energy             :  -829.5866449658128658 Eh
Relativity type    :
Basis              : AO
                                X                 Y                 Z
Electronic contribution:      1.708380551      -7.052862883       2.092961887
Nuclear contribution   :     -1.902956953       8.720992391      -2.359944315
                        -----------------------------------------
Total Dipole Moment    :     -0.194576402       1.668129508      -0.266982428
                        -----------------------------------------
Magnitude (a.u.)       :      1.700528050
Magnitude (Debye)      :      4.322398796

Rotational constants in cm-1:             0.036492             0.006404             0.006095
Rotational constants in MHz :          1093.988387           191.975080           182.719655

                             ****ORCA TERMINATED NORMALLY****
TOTAL RUN TIME: 0 days 0 hours 1 minutes 31 seconds 952 msec
