                         Program Version 6.0.0  -   RELEASE  -
|  1> ! r2scan-3c def2/J RI DEFGRID2 scfconv6 printgap
|  2> %output
|  3>     printlevel normal
|  4> end
|  5> * xyz 0 1
|  6> C -2.2681248269 -1.2760585113 0.6949485382
|  7> C -2.5133388248 0.029197147 -0.0522473675
|  8> C -1.3376994309 0.3848789221 -0.9698268267
|  9> C -0.1037143835 0.6791006857 -0.1567179184
| 10> O -0.0199597776 1.5433166614 0.6925748837
| 11> O 0.8973001278 -0.1308760829 -0.4690134301
| 12> C 2.1403164637 0.0243678461 0.2363927783
| 13> C 3.0131233367 -1.1772108512 -0.0704499785
| 14> H -3.1269385871 -1.5262101959 1.3119918527
| 15> H -2.0940746268 -2.0899790622 -0.0046698911
| 16> H -1.3973616789 -1.1862711684 1.3418346023
| 17> H -2.6559354623 0.8416630393 0.6628587442
| 18> H -3.4157690365 -0.0584746229 -0.6576620786
| 19> H -1.581715263 1.2837409807 -1.537832445
| 20> H -1.1170254635 -0.4328344667 -1.6545779811
| 21> H 2.607200805 0.9578662704 -0.0941301721
| 22> H 1.923481991 0.1114646504 1.3063213234
| 23> H 3.1910506948 -1.2421601033 -1.1396501193
| 24> H 3.9615650702 -1.0736029406 0.4460976536
| 25> H 2.5229603948 -2.0886369275 0.2589830336
| 26> *
| 27>
| 28>                          ****END OF INPUT****

CARTESIAN COORDINATES (ANGSTROEM)
---------------------------------
  C     -2.268125   -1.276059    0.694949
  C     -2.513339    0.029197   -0.052247
  C     -1.337699    0.384879   -0.969827
  C     -0.103714    0.679101   -0.156718
  O     -0.019960    1.543317    0.692575
  O      0.897300   -0.130876   -0.469013
  C      2.140316    0.024368    0.236393
  C      3.013123   -1.177211   -0.070450
  H     -3.126939   -1.526210    1.311992
  H     -2.094075   -2.089979   -0.004670
  H     -1.397362   -1.186271    1.341835
  H     -2.655935    0.841663    0.662859
  H     -3.415769   -0.058475   -0.657662
  H     -1.581715    1.283741   -1.537832
  H     -1.117025   -0.432834   -1.654578
  H      2.607201    0.957866   -0.094130
  H      1.923482    0.111465    1.306321
  H      3.191051   -1.242160   -1.139650
  H      3.961565   -1.073603    0.446098
  H      2.522960   -2.088637    0.258983

 Total Charge           Charge          ....    0
 Multiplicity           Mult            ....    1
 Number of Electrons    NEL             ....   64
 Basis Dimension        Dim             ....  222

ORBITAL ENERGIES
----------------

  NO   OCC          E(Eh)            E(eV)
   0   2.0000     -18.997213      -516.9405
   1   2.0000     -18.926267      -515.0099
   2   2.0000     -10.150159      -276.1999
   3   2.0000     -10.091374      -274.6002
   4   2.0000     -10.040039      -273.2034
   5   2.0000     -10.034520      -273.0532
   6   2.0000     -10.032320      -272.9933
   7   2.0000     -10.019839      -272.6537
   8   2.0000      -1.071763       -29.1642
   9   2.0000      -0.973602       -26.4931
  10   2.0000      -0.773623       -21.0514
  11   2.0000      -0.743117       -20.2213
  12   2.0000      -0.677658       -18.4400
  13   2.0000      -0.618279       -16.8242
  14   2.0000      -0.565432       -15.3862
  15   2.0000      -0.529643       -14.4123
  16   2.0000      -0.469342       -12.7715
  17   2.0000      -0.464615       -12.6428
  18   2.0000      -0.437234       -11.8977
  19   2.0000      -0.423103       -11.5132
  20   2.0000      -0.407951       -11.1009
  21   2.0000      -0.380234       -10.3467
  22   2.0000      -0.378463       -10.2985
  23   2.0000      -0.366798        -9.9811
  24   2.0000      -0.360975        -9.8226
  25   2.0000      -0.335437        -9.1277
  26   2.0000      -0.323395        -8.8000
  27   2.0000      -0.309879        -8.4322
  28   2.0000      -0.308464        -8.3937
  29   2.0000      -0.306233        -8.3330
  30   2.0000      -0.271346        -7.3837
  31   2.0000      -0.233968        -6.3666
  32   0.0000      -0.014985        -0.4078
  33   0.0000       0.073377         1.9967
  34   0.0000       0.096213         2.6181
  35   0.0000       0.106304         2.8927
  36   0.0000       0.124967         3.4005

MULLIKEN ATOMIC CHARGES
-----------------------
   0 C :   -0.493393
   1 C :   -0.220010
   2 C :   -0.302543
   3 C :    0.334021
   4 O :   -0.420304
   5 O :   -0.157459
   6 C :   -0.155088
   7 C :   -0.440860
   8 H :    0.148620
   9 H :    0.147315
  10 H :    0.155557
  11 H :    0.162126
  12 H :    0.145105
  13 H :    0.165140
  14 H :    0.163912
  15 H :    0.150775
  16 H :    0.165074
  17 H :    0.152144
  18 H :    0.147240
  19 H :    0.152627
Sum of atomic charges:   -0.0000000

LOEWDIN ATOMIC CHARGES
----------------------
   0 C :   -0.416916
   1 C :   -0.292129
   2 C :   -0.232619
   3 C :    0.351269
   4 O :   -0.431241
   5 O :   -0.598861
   6 C :    0.032852
   7 C :   -0.386748
   8 H :    0.152708
   9 H :    0.151006
  10 H :    0.155382
  11 H :    0.166796
  12 H :    0.152904
  13 H :    0.180941
  14 H :    0.176434
  15 H :    0.176803
  16 H :    0.183396
  17 H :    0.159281
  18 H :    0.159463
  19 H :    0.159278

  Mayer bond orders larger than 0.100000
B(  0-C ,  1-C ) :   0.9033 B(  0-C ,  8-H ) :   0.9687 B(  0-C ,  9-H ) :   0.9815
B(  0-C , 10-H ) :   0.9728 B(  1-C ,  2-C ) :   0.8862 B(  1-C , 11-H ) :   0.9695
B(  1-C , 12-H ) :   0.9660 B(  2-C ,  3-C ) :   0.9333 B(  2-C , 13-H ) :   0.9416
B(  2-C , 14-H ) :   1.0088 B(  3-C ,  4-O ) :   1.8161 B(  3-C ,  5-O ) :   1.0674
B(  5-O ,  6-C ) :   0.8027 B(  6-C ,  7-C ) :   0.9407 B(  6-C , 15-H ) :   0.9475
B(  6-C , 16-H ) :   0.9594 B(  7-C , 17-H ) :   0.9696 B(  7-C , 18-H ) :   0.9683
B(  7-C , 19-H ) :   0.9741

Dispersion correction           -0.005065349
FINAL SINGLE POINT ENERGY      -386.236379183218

DIPOLE MOMENT
-------------

Method             : SCF
Type of density    : Electron Density
Multiplicity       :   1
Irrep              :   0
Energy             :  -386.2429694604751944 Eh
Relativity type    :
Basis              : AO
                                X                 Y                 Z
Electronic contribution:      1.323230123       5.408937811      -0.634923679
Nuclear contribution   :     -1.096430153      -6.080361815       0.228066464
                        -----------------------------------------
Total Dipole Moment    :      0.226799970      -0.671424004      -0.406857215
                        -----------------------------------------
Magnitude (a.u.)       :      0.817178813
Magnitude (Debye)      :      2.077103474

Rotational constants in cm-1:             0.119156             0.036504             0.032479
Rotational constants in MHz :          3572.194884          1094.364828           973.700669

                             ****ORCA TERMINATED NORMALLY****
TOTAL RUN TIME: 0 days 0 hours 0 minutes 33 seconds 555 msec
