                         Program Version 6.0.0  -   RELEASE  -
|  1> ! r2scan-3c def2/J RI DEFGRID2 scfconv6 printgap
|  2> %output
|  3>     printlevel normal
|  4> end
|  5> %cpcm
|  6>     smd true
|  7>     smdsolvent "water"
|  8> end
|  9> * xyz 0 1
| 10> C -2.2681248269 -1.2760585113 0.6949485382
| 11> C -2.5133388248 0.029197147 -0.0522473675
| 12> C -1.3376994309 0.3848789221 -0.9698268267
| 13> C -0.1037143835 0.6791006857 -0.1567179184
| 14> O -0.0199597776 1.5433166614 0.6925748837
| 15> O 0.8973001278 -0.1308760829 -0.4690134301
| 16> C 2.1403164637 0.0243678461 0.2363927783
| 17> C 3.0131233367 -1.1772108512 -0.0704499785
| 18> H -3.1269385871 -1.5262101959 1.3119918527
| 19> H -2.0940746268 -2.0899790622 -0.0046698911
| 20> H -1.3973616789 -1.1862711684 1.3418346023
| 21> H -2.6559354623 0.8416630393 0.6628587442
| 22> H -3.4157690365 -0.0584746229 -0.6576620786
| 23> H -1.581715263 1.2837409807 -1.537832445
| 24> H -1.1170254635 -0.4328344667 -1.6545779811
| 25> H 2.607200805 0.9578662704 -0.0941301721
| 26> H 1.923481991 0.1114646504 1.3063213234
| 27> H 3.1910506948 -1.2421601033 -1.1396501193
| 28> H 3.9615650702 -1.0736029406 0.4460976536
| 29> H 2.5229603948 -2.0886369275 0.2589830336
| 30> *
| 31>
| 32>                          ****END OF INPUT****

CARTESIAN COORDINATES (ANGSTROEM)
---------------------------------
  C     -2.268125   -1.276059    0.694949
  C     -2.513339    0.029197   -0.052247
  C     -1.337699    0.384879   -0.969827
  C     -0.103714    0.679101   -0.156718
  O     -0.019960    1.543317    0.692575
  O      0.897300   -0.130876   -0.469013
  C      2.140316    0.024368    0.236393
  C      3.013123   -1.177211   -0.070450
  H     -3.126939   -1.526210    1.311992
  H     -2.094075   -2.089979   -0.004670
  H     -1.397362   -1.186271    1.341835
  H     -2.655935    0.841663    0.662859
  H     -3.415769   -0.058475   -0.657662
  H     -1.581715    1.283741   -1.537832
  H     -1.117025   -0.432834   -1.654578
  H      2.607201    0.957866   -0.094130
  H      1.923482    0.111465    1.306321
  H      3.191051   -1.242160   -1.139650
  H      3.961565   -1.073603    0.446098
  H      2.522960   -2.088637    0.258983

 Total Charge           Charge          ....    0
 Multiplicity           Mult            ....    1
 Number of Electrons    NEL             ....   64
 Basis Dimension        Dim             ....  222

ORBITAL ENERGIES
----------------

  NO   OCC          E(Eh)            E(eV)
   0   2.0000     -19.003542      -517.1127
   1   2.0000     -18.943332      -515.4743
   2   2.0000     -10.161836      -276.5176
   3   2.0000     -10.083809      -274.3944
   4   2.0000     -10.035122      -273.0695
   5   2.0000     -10.028602      -272.8921
   6   2.0000     -10.018908      -272.6283
   7   2.0000     -10.011679      -272.4316
   8   2.0000      -1.079818       -29.3833
   9   2.0000      -0.988412       -26.8961
  10   2.0000      -0.769778       -20.9467
  11   2.0000      -0.735664       -20.0184
  12   2.0000      -0.672040       -18.2871
  13   2.0000      -0.611988       -16.6530
  14   2.0000      -0.559182       -15.2161
  15   2.0000      -0.528976       -14.3942
  16   2.0000      -0.472121       -12.8471
  17   2.0000      -0.464009       -12.6263
  18   2.0000      -0.445949       -12.1349
  19   2.0000      -0.420189       -11.4339
  20   2.0000      -0.405363       -11.0305
  21   2.0000      -0.377840       -10.2815
  22   2.0000      -0.369175       -10.0458
  23   2.0000      -0.361258        -9.8303
  24   2.0000      -0.356003        -9.6873
  25   2.0000      -0.330712        -8.9991
  26   2.0000      -0.319785        -8.7018
  27   2.0000      -0.304762        -8.2930
  28   2.0000      -0.304024        -8.2729
  29   2.0000      -0.303558        -8.2602
  30   2.0000      -0.278224        -7.5709
  31   2.0000      -0.251556        -6.8452
  32   0.0000      -0.023812        -0.6479
  33   0.0000       0.076140         2.0719
  34   0.0000       0.104490         2.8433
  35   0.0000       0.115945         3.1550
  36   0.0000       0.132500         3.6055

MULLIKEN ATOMIC CHARGES
-----------------------
   0 C :   -0.530541
   1 C :   -0.225703
   2 C :   -0.318033
   3 C :    0.378075
   4 O :   -0.507689
   5 O :   -0.174882
   6 C :   -0.157075
   7 C :   -0.489010
   8 H :    0.161607
   9 H :    0.163294
  10 H :    0.163062
  11 H :    0.156370
  12 H :    0.164347
  13 H :    0.192117
  14 H :    0.179850
  15 H :    0.172609
  16 H :    0.172446
  17 H :    0.164623
  18 H :    0.168900
  19 H :    0.165635
Sum of atomic charges:   -0.0000000

LOEWDIN ATOMIC CHARGES
----------------------
   0 C :   -0.423955
   1 C :   -0.291272
   2 C :   -0.229591
   3 C :    0.361250
   4 O :   -0.493251
   5 O :   -0.599977
   6 C :    0.035463
   7 C :   -0.389648
   8 H :    0.156283
   9 H :    0.156118
  10 H :    0.156229
  11 H :    0.163103
  12 H :    0.160532
  13 H :    0.190473
  14 H :    0.184263
  15 H :    0.184050
  16 H :    0.186575
  17 H :    0.162632
  18 H :    0.168214
  19 H :    0.162508

  Mayer bond orders larger than 0.100000
B(  0-C ,  1-C ) :   0.8947 B(  0-C ,  8-H ) :   0.9654 B(  0-C ,  9-H ) :   0.9780
B(  0-C , 10-H ) :   0.9702 B(  1-C ,  2-C ) :   0.8732 B(  1-C , 11-H ) :   0.9733
B(  1-C , 12-H ) :   0.9618 B(  2-C ,  3-C ) :   0.9362 B(  2-C , 13-H ) :   0.9344
B(  2-C , 14-H ) :   0.9981 B(  3-C ,  4-O ) :   1.7447 B(  3-C ,  5-O ) :   1.0939
B(  5-O ,  6-C ) :   0.7897 B(  6-C ,  7-C ) :   0.9416 B(  6-C , 15-H ) :   0.9388
B(  6-C , 16-H ) :   0.9529 B(  7-C , 17-H ) :   0.9672 B(  7-C , 18-H ) :   0.9618
B(  7-C , 19-H ) :   0.9726

Dispersion correction           -0.005065349
FINAL SINGLE POINT ENERGY      -386.242009205222

DIPOLE MOMENT
-------------

Method             : SCF
Type of density    : Electron Density
Multiplicity       :   1
Irrep              :   0
Energy             :  -386.2485994824796762 Eh
Relativity type    :
Basis              : AO
                                X                 Y                 Z
Electronic contribution:      1.378415459       5.145642396      -0.853291768
Nuclear contribution   :     -1.096430153      -6.080361815       0.228066464
                        -----------------------------------------
Total Dipole Moment    :      0.281985306      -0.934719420      -0.625225304
                        -----------------------------------------
Magnitude (a.u.)       :      1.159363095
Magnitude (Debye)      :      2.946866797

Rotational constants in cm-1:             0.119156             0.036504             0.032479
Rotational constants in MHz :          3572.194884          1094.364828           973.700669

                             ****ORCA TERMINATED NORMALLY****
TOTAL RUN TIME: 0 days 0 hours 0 minutes 39 seconds 456 msec
