                         Program Version 6.0.0  -   RELEASE  -
|  1> ! pbe def2-sv(p) def2/J RI DEFGRID1 loosescf d4 GCP(DFT/SV(P)) printgap
|  2> %output
|  3>     printlevel normal
|  4> end
|  5> * xyz 0 1
|  6> C -4.5498264857 -1.0914764165 -0.3639351597
|  7> C -3.8127990199 -2.2567994069 -0.203771833
|  8> C -2.4445043032 -2.1907963695 -0.0179002855
|  9> C -1.7879524718 -0.9620017775 0.0115445243
| 10> C -2.532761349 0.2114402911 -0.1500358059
| 11> C -3.9118414464 0.1340766186 -0.3369034569
| 12> C -1.8770614314 1.5242415328 -0.1262297472
| 13> O -2.5169190068 2.5647135309 -0.2674057376
| 14> C -0.4173750024 1.5358098355 0.0756650247
| 15> C 0.1987948503 2.7745594006 0.0902528865
| 16> C 1.5757527425 2.8734584164 0.2731762123
| 17> C 2.3298528083 1.7455267301 0.4489957917
| 18> C 1.7466562249 0.4542741891 0.4484787798
| 19> C 0.332398863 0.3472623706 0.2473559844
| 20> C -0.3258168574 -0.9404588147 0.2130507258
| 21> O 0.2754140718 -2.0235799869 0.3387593089
| 22> N 2.4796650123 -0.649618011 0.6365874231
| 23> C 3.9006169318 -0.7869063555 0.8246383784
| 24> C 4.5218678355 -1.6401647445 -0.2938371664
| 25> O 4.5836744831 -0.9626781216 -1.5283677362
| 26> H -5.6174537372 -1.1402746381 -0.5092246474
| 27> H -4.3059981703 -3.2159358309 -0.2242360732
| 28> H -1.8544290471 -3.0863916151 0.1085661499
| 29> H -4.4592391775 1.057050507 -0.4588143182
| 30> H -0.4129695503 3.6530399237 -0.0452185951
| 31> H 2.0461188664 3.8440489195 0.2772132902
| 32> H 3.3930244798 1.8458109627 0.5869652895
| 33> H 1.949280079 -1.5212683003 0.6208790943
| 34> H 4.0843142099 -1.2879942991 1.7793940662
| 35> H 4.3927455755 0.183389424 0.8360428353
| 36> H 3.9634709289 -2.5789625549 -0.3955030315
| 37> H 5.5569191605 -1.8709404941 -0.0360730303
| 38> H 3.6864208834 -0.8028276721 -1.8496654649
| 39> *
| 40>
| 41>                          ****END OF INPUT****

CARTESIAN COORDINATES (ANGSTROEM)
---------------------------------
  C     -4.549826   -1.091476   -0.363935
  C     -3.812799   -2.256799   -0.203772
  C     -2.444504   -2.190796   -0.017900
  C     -1.787952   -0.962002    0.011545
  C     -2.532761    0.211440   -0.150036
  C     -3.911841    0.134077   -0.336903
  C     -1.877061    1.524242   -0.126230
  O     -2.516919    2.564714   -0.267406
  C     -0.417375    1.535810    0.075665
  C      0.198795    2.774559    0.090253
  C      1.575753    2.873458    0.273176
  C      2.329853    1.745527    0.448996
  C      1.746656    0.454274    0.448479
  C      0.332399    0.347262    0.247356
  C     -0.325817   -0.940459    0.213051
  O      0.275414   -2.023580    0.338759
  N      2.479665   -0.649618    0.636587
  C      3.900617   -0.786906    0.824638
  C      4.521868   -1.640165   -0.293837
  O      4.583674   -0.962678   -1.528368
  H     -5.617454   -1.140275   -0.509225
  H     -4.305998   -3.215936   -0.224236
  H     -1.854429   -3.086392    0.108566
  H     -4.459239    1.057051   -0.458814
  H     -0.412970    3.653040   -0.045219
  H      2.046119    3.844049    0.277213
  H      3.393024    1.845811    0.586965
  H      1.949280   -1.521268    0.620879
  H      4.084314   -1.287994    1.779394
  H      4.392746    0.183389    0.836043
  H      3.963471   -2.578963   -0.395503
  H      5.556919   -1.870940   -0.036073
  H      3.686421   -0.802828   -1.849665

 Total Charge           Charge          ....    0
 Multiplicity           Mult            ....    1
 Number of Electrons    NEL             ....  140
 Basis Dimension        Dim             ....  306

ORBITAL ENERGIES
----------------

  NO   OCC          E(Eh)            E(eV)
   0   2.0000     -18.755210      -510.3552
   1   2.0000     -18.750969      -510.2398
   2   2.0000     -18.743354      -510.0326
   3   2.0000     -14.024252      -381.6193
   4   2.0000      -9.979614      -271.5591
   5   2.0000      -9.974971      -271.4328
   6   2.0000      -9.964080      -271.1364
   7   2.0000      -9.946442      -270.6564
   8   2.0000      -9.938611      -270.4434
   9   2.0000      -9.914953      -269.7996
  10   2.0000      -9.913900      -269.7709
  11   2.0000      -9.913425      -269.7580
  12   2.0000      -9.912316      -269.7278
  13   2.0000      -9.910860      -269.6882
  14   2.0000      -9.909887      -269.6617
  15   2.0000      -9.909117      -269.6408
  16   2.0000      -9.908605      -269.6269
  17   2.0000      -9.905965      -269.5550
  18   2.0000      -9.905431      -269.5405
  19   2.0000      -9.896256      -269.2908
  20   2.0000      -0.943236       -25.6667
  21   2.0000      -0.935982       -25.4694
  22   2.0000      -0.932768       -25.3819
  23   2.0000      -0.876124       -23.8405
  24   2.0000      -0.798343       -21.7240
  25   2.0000      -0.783791       -21.3280
  26   2.0000      -0.726763       -19.7762
  27   2.0000      -0.707662       -19.2565
  28   2.0000      -0.689223       -18.7547
  29   2.0000      -0.685358       -18.6495
  30   2.0000      -0.656535       -17.8652
  31   2.0000      -0.610636       -16.6162
  32   2.0000      -0.599111       -16.3026
  33   2.0000      -0.584215       -15.8973
  34   2.0000      -0.570489       -15.5238
  35   2.0000      -0.540838       -14.7170
  36   2.0000      -0.526273       -14.3206
  37   2.0000      -0.499324       -13.5873
  38   2.0000      -0.492135       -13.3917
  39   2.0000      -0.477636       -12.9971
  40   2.0000      -0.459947       -12.5158
  41   2.0000      -0.446820       -12.1586
  42   2.0000      -0.437131       -11.8950
  43   2.0000      -0.432415       -11.7666
  44   2.0000      -0.425505       -11.5786
  45   2.0000      -0.419796       -11.4232
  46   2.0000      -0.410657       -11.1746
  47   2.0000      -0.400759       -10.9052
  48   2.0000      -0.389491       -10.5986
  49   2.0000      -0.385714       -10.4958
  50   2.0000      -0.379680       -10.3316
  51   2.0000      -0.372560       -10.1379
  52   2.0000      -0.367086        -9.9889
  53   2.0000      -0.360905        -9.8207
  54   2.0000      -0.356172        -9.6919
  55   2.0000      -0.352992        -9.6054
  56   2.0000      -0.338781        -9.2187
  57   2.0000      -0.332208        -9.0398
  58   2.0000      -0.324928        -8.8417
  59   2.0000      -0.318077        -8.6553
  60   2.0000      -0.309618        -8.4251
  61   2.0000      -0.296642        -8.0720
  62   2.0000      -0.282976        -7.7002
  63   2.0000      -0.250991        -6.8298
  64   2.0000      -0.243687        -6.6311
  65   2.0000      -0.242065        -6.5869
  66   2.0000      -0.231743        -6.3060
  67   2.0000      -0.219919        -5.9843
  68   2.0000      -0.206637        -5.6229
  69   2.0000      -0.189272        -5.1504
  70   0.0000      -0.127517        -3.4699
  71   0.0000      -0.080065        -2.1787
  72   0.0000      -0.053089        -1.4446
  73   0.0000      -0.032781        -0.8920
  74   0.0000       0.015784         0.4295

MULLIKEN ATOMIC CHARGES
-----------------------
   0 C :   -0.020926
   1 C :   -0.016239
   2 C :   -0.134019
   3 C :    0.052721
   4 C :    0.037987
   5 C :   -0.125694
   6 C :    0.085617
   7 O :   -0.150264
   8 C :    0.018941
   9 C :   -0.140197
  10 C :   -0.008976
  11 C :   -0.168213
  12 C :    0.082257
  13 C :    0.048508
  14 C :    0.070513
  15 O :   -0.224606
  16 N :   -0.248080
  17 C :   -0.069528
  18 C :   -0.007169
  19 O :   -0.436387
  20 H :    0.063083
  21 H :    0.062542
  22 H :    0.058676
  23 H :    0.058793
  24 H :    0.056451
  25 H :    0.060782
  26 H :    0.040367
  27 H :    0.246018
  28 H :    0.098077
  29 H :    0.120378
  30 H :    0.087942
  31 H :    0.097370
  32 H :    0.303275
Sum of atomic charges:   -0.0000000

LOEWDIN ATOMIC CHARGES
----------------------
   0 C :   -0.107368
   1 C :   -0.104871
   2 C :   -0.088795
   3 C :   -0.044880
   4 C :   -0.053347
   5 C :   -0.082715
   6 C :    0.058300
   7 O :   -0.131086
   8 C :   -0.044667
   9 C :   -0.111194
  10 C :   -0.095855
  11 C :   -0.145538
  12 C :    0.030233
  13 C :   -0.094313
  14 C :    0.055893
  15 O :   -0.182823
  16 N :   -0.131632
  17 C :   -0.177052
  18 C :   -0.128987
  19 O :   -0.339240
  20 H :    0.129009
  21 H :    0.128789
  22 H :    0.134898
  23 H :    0.136135
  24 H :    0.135417
  25 H :    0.130550
  26 H :    0.129001
  27 H :    0.241242
  28 H :    0.123263
  29 H :    0.125402
  30 H :    0.102070
  31 H :    0.118357
  32 H :    0.285803

  Mayer bond orders larger than 0.100000
B(  0-C ,  1-C ) :   1.3268 B(  0-C ,  5-C ) :   1.3363 B(  0-C , 20-H ) :   0.9668
B(  1-C ,  2-C ) :   1.3362 B(  1-C , 21-H ) :   0.9665 B(  2-C ,  3-C ) :   1.3802
B(  2-C , 22-H ) :   0.9544 B(  3-C ,  4-C ) :   1.3348 B(  3-C , 14-C ) :   0.9832
B(  4-C ,  5-C ) :   1.3783 B(  4-C ,  6-C ) :   0.9567 B(  5-C , 23-H ) :   0.9570
B(  6-C ,  7-O ) :   2.1554 B(  6-C ,  8-C ) :   0.9495 B(  8-C ,  9-C ) :   1.4334
B(  8-C , 13-C ) :   1.2985 B(  9-C , 10-C ) :   1.2273 B(  9-C , 24-H ) :   0.9563
B( 10-C , 11-C ) :   1.4076 B( 10-C , 25-H ) :   0.9644 B( 11-C , 12-C ) :   1.2318
B( 11-C , 26-H ) :   0.9561 B( 12-C , 13-C ) :   1.2059 B( 12-C , 16-N ) :   1.3807
B( 13-C , 14-C ) :   1.0307 B( 14-C , 15-O ) :   1.9480 B( 15-O , 27-H ) :   0.1509
B( 16-N , 17-C ) :   1.0109 B( 16-N , 27-H ) :   0.7571 B( 17-C , 18-C ) :   1.0826
B( 17-C , 28-H ) :   0.9081 B( 17-C , 29-H ) :   0.9001 B( 18-C , 19-O ) :   1.0776
B( 18-C , 30-H ) :   0.9213 B( 18-C , 31-H ) :   0.9250 B( 19-O , 32-H ) :   0.8467

Dispersion correction           -0.046438390
FINAL SINGLE POINT ENERGY      -896.122857048612

DIPOLE MOMENT
-------------

Method             : SCF
Type of density    : Electron Density
Multiplicity       :   1
Irrep              :   0
Energy             :  -896.2199246529453376 Eh
Relativity type    :
Basis              : AO
                                X                 Y                 Z
Electronic contribution:    -11.198458880       4.023452071      -0.259567512
Nuclear contribution   :     11.702464927      -4.626793825       0.629565799
                        -----------------------------------------
Total Dipole Moment    :      0.504006047      -0.603341753       0.369998287
                        -----------------------------------------
Magnitude (a.u.)       :      0.868874041
Magnitude (Debye)      :      2.208502300

Rotational constants in cm-1:             0.020586             0.007692             0.005887
Rotational constants in MHz :           617.165944           230.612023           176.485870

                             ****ORCA TERMINATED NORMALLY****
TOTAL RUN TIME: 0 days 0 hours 0 minutes 30 seconds 693 msec
