                         Program Version 6.0.0  -   RELEASE  -
|  1> ! pbe def2-sv(p) def2/J RI DEFGRID1 loosescf d4 GCP(DFT/SV(P)) printgap
|  2> %output
|  3>     printlevel normal
|  4> end
|  5> * xyz 0 1
|  6> C -4.6785767008 -0.9169329684 0.2322056312
|  7> C -4.020921123 -2.1326661244 0.1044878592
|  8> C -2.6460389505 -2.1646076603 -0.0357634011
|  9> C -1.9035537297 -0.9855194195 -0.050385168
| 10> C -2.568252031 0.2389272783 0.0793059918
| 11> C -3.9548860204 0.2602128844 0.2194248351
| 12> C -1.821350396 1.5029333858 0.0708175874
| 13> O -2.3931190016 2.5867066709 0.1796031041
| 14> C -0.3589276498 1.410123247 -0.072293582
| 15> C 0.3478007387 2.5999346927 -0.0539309443
| 16> C 1.7359354004 2.5973286345 -0.1666479654
| 17> C 2.4116176803 1.416632579 -0.3126682056
| 18> C 1.7321257655 0.1755247285 -0.3572559309
| 19> C 0.308763999 0.1701676457 -0.2191222971
| 20> C -0.4378621963 -1.0678325298 -0.207888291
| 21> O 0.0901485664 -2.1899076295 -0.3178267527
| 22> N 2.398016696 -0.9708116469 -0.5483968874
| 23> C 3.8241477342 -1.1508116042 -0.649080185
| 24> C 4.5409704014 -1.1449742566 0.721532924
| 25> O 4.9605288775 0.1357403392 1.1342720388
| 26> H -5.7512586237 -0.8889887879 0.3416552969
| 27> H -4.5810715064 -3.0545090657 0.1142836991
| 28> H -2.1161432827 -3.1001501635 -0.1372865114
| 29> H -4.4394023308 1.220486987 0.3174225781
| 30> H -0.2034068314 3.5208372927 0.059782717
| 31> H 2.2764211354 3.5301289317 -0.1335604795
| 32> H 3.4859018479 1.4245249894 -0.3669210062
| 33> H 1.8245810412 -1.810042542 -0.4877620848
| 34> H 4.2556343129 -0.3781706688 -1.2900553909
| 35> H 3.984840254 -2.1200441904 -1.1207384229
| 36> H 5.3934942091 -1.8307095371 0.6859837133
| 37> H 3.8473018297 -1.4945352325 1.4899672962
| 38> H 5.7574298195 0.3848607767 0.6461467845
| 39> *
| 40>
| 41>                          ****END OF INPUT****

CARTESIAN COORDINATES (ANGSTROEM)
---------------------------------
  C     -4.678577   -0.916933    0.232206
  C     -4.020921   -2.132666    0.104488
  C     -2.646039   -2.164608   -0.035763
  C     -1.903554   -0.985519   -0.050385
  C     -2.568252    0.238927    0.079306
  C     -3.954886    0.260213    0.219425
  C     -1.821350    1.502933    0.070818
  O     -2.393119    2.586707    0.179603
  C     -0.358928    1.410123   -0.072294
  C      0.347801    2.599935   -0.053931
  C      1.735935    2.597329   -0.166648
  C      2.411618    1.416633   -0.312668
  C      1.732126    0.175525   -0.357256
  C      0.308764    0.170168   -0.219122
  C     -0.437862   -1.067833   -0.207888
  O      0.090149   -2.189908   -0.317827
  N      2.398017   -0.970812   -0.548397
  C      3.824148   -1.150812   -0.649080
  C      4.540970   -1.144974    0.721533
  O      4.960529    0.135740    1.134272
  H     -5.751259   -0.888989    0.341655
  H     -4.581072   -3.054509    0.114284
  H     -2.116143   -3.100150   -0.137287
  H     -4.439402    1.220487    0.317423
  H     -0.203407    3.520837    0.059783
  H      2.276421    3.530129   -0.133560
  H      3.485902    1.424525   -0.366921
  H      1.824581   -1.810043   -0.487762
  H      4.255634   -0.378171   -1.290055
  H      3.984840   -2.120044   -1.120738
  H      5.393494   -1.830710    0.685984
  H      3.847302   -1.494535    1.489967
  H      5.757430    0.384861    0.646147

 Total Charge           Charge          ....    0
 Multiplicity           Mult            ....    1
 Number of Electrons    NEL             ....  140
 Basis Dimension        Dim             ....  306

ORBITAL ENERGIES
----------------

  NO   OCC          E(Eh)            E(eV)
   0   2.0000     -18.764502      -510.6081
   1   2.0000     -18.744722      -510.0698
   2   2.0000     -18.737516      -509.8737
   3   2.0000     -14.015863      -381.3910
   4   2.0000      -9.973142      -271.3830
   5   2.0000      -9.969183      -271.2753
   6   2.0000      -9.954087      -270.8645
   7   2.0000      -9.948985      -270.7256
   8   2.0000      -9.939760      -270.4746
   9   2.0000      -9.909644      -269.6551
  10   2.0000      -9.907163      -269.5876
  11   2.0000      -9.906770      -269.5769
  12   2.0000      -9.906530      -269.5704
  13   2.0000      -9.905361      -269.5386
  14   2.0000      -9.904573      -269.5171
  15   2.0000      -9.903195      -269.4796
  16   2.0000      -9.901158      -269.4242
  17   2.0000      -9.900562      -269.4080
  18   2.0000      -9.898535      -269.3528
  19   2.0000      -9.890258      -269.1276
  20   2.0000      -0.941371       -25.6160
  21   2.0000      -0.936337       -25.4790
  22   2.0000      -0.929910       -25.3041
  23   2.0000      -0.869964       -23.6729
  24   2.0000      -0.792952       -21.5773
  25   2.0000      -0.777296       -21.1513
  26   2.0000      -0.720477       -19.6052
  27   2.0000      -0.702517       -19.1165
  28   2.0000      -0.684248       -18.6193
  29   2.0000      -0.678903       -18.4739
  30   2.0000      -0.652951       -17.7677
  31   2.0000      -0.604492       -16.4491
  32   2.0000      -0.596976       -16.2446
  33   2.0000      -0.578725       -15.7479
  34   2.0000      -0.569111       -15.4863
  35   2.0000      -0.534047       -14.5321
  36   2.0000      -0.520200       -14.1554
  37   2.0000      -0.496321       -13.5056
  38   2.0000      -0.492389       -13.3986
  39   2.0000      -0.476129       -12.9561
  40   2.0000      -0.455487       -12.3944
  41   2.0000      -0.443512       -12.0686
  42   2.0000      -0.431090       -11.7306
  43   2.0000      -0.424849       -11.5607
  44   2.0000      -0.417117       -11.3503
  45   2.0000      -0.414933       -11.2909
  46   2.0000      -0.405094       -11.0232
  47   2.0000      -0.394228       -10.7275
  48   2.0000      -0.388216       -10.5639
  49   2.0000      -0.384604       -10.4656
  50   2.0000      -0.377800       -10.2804
  51   2.0000      -0.370779       -10.0894
  52   2.0000      -0.363991        -9.9047
  53   2.0000      -0.356518        -9.7013
  54   2.0000      -0.353071        -9.6076
  55   2.0000      -0.345426        -9.3995
  56   2.0000      -0.333303        -9.0696
  57   2.0000      -0.326100        -8.8736
  58   2.0000      -0.318471        -8.6660
  59   2.0000      -0.311909        -8.4875
  60   2.0000      -0.304172        -8.2770
  61   2.0000      -0.292865        -7.9693
  62   2.0000      -0.283570        -7.7163
  63   2.0000      -0.244925        -6.6648
  64   2.0000      -0.240714        -6.5502
  65   2.0000      -0.237085        -6.4514
  66   2.0000      -0.236390        -6.4325
  67   2.0000      -0.213889        -5.8202
  68   2.0000      -0.200860        -5.4657
  69   2.0000      -0.182388        -4.9630
  70   0.0000      -0.121428        -3.3042
  71   0.0000      -0.074539        -2.0283
  72   0.0000      -0.046761        -1.2724
  73   0.0000      -0.027056        -0.7362
  74   0.0000       0.008928         0.2429

MULLIKEN ATOMIC CHARGES
-----------------------
   0 C :   -0.021281
   1 C :   -0.017148
   2 C :   -0.134229
   3 C :    0.052154
   4 C :    0.037878
   5 C :   -0.126307
   6 C :    0.084159
   7 O :   -0.153199
   8 C :    0.019450
   9 C :   -0.138698
  10 C :   -0.010058
  11 C :   -0.125524
  12 C :    0.075191
  13 C :    0.047730
  14 C :    0.071566
  15 O :   -0.224052
  16 N :   -0.234922
  17 C :   -0.073796
  18 C :    0.001095
  19 O :   -0.419046
  20 H :    0.061203
  21 H :    0.060689
  22 H :    0.057062
  23 H :    0.057260
  24 H :    0.053651
  25 H :    0.056176
  26 H :    0.016035
  27 H :    0.244325
  28 H :    0.095520
  29 H :    0.097187
  30 H :    0.083398
  31 H :    0.104031
  32 H :    0.302501
Sum of atomic charges:    0.0000000

LOEWDIN ATOMIC CHARGES
----------------------
   0 C :   -0.108800
   1 C :   -0.106289
   2 C :   -0.089493
   3 C :   -0.044403
   4 C :   -0.053036
   5 C :   -0.083714
   6 C :    0.057864
   7 O :   -0.134011
   8 C :   -0.046723
   9 C :   -0.109933
  10 C :   -0.098144
  11 C :   -0.138581
  12 C :    0.035257
  13 C :   -0.091623
  14 C :    0.056089
  15 O :   -0.182020
  16 N :   -0.129558
  17 C :   -0.178642
  18 C :   -0.134093
  19 O :   -0.325644
  20 H :    0.128100
  21 H :    0.127860
  22 H :    0.134232
  23 H :    0.135437
  24 H :    0.134095
  25 H :    0.128685
  26 H :    0.120754
  27 H :    0.241688
  28 H :    0.118401
  29 H :    0.127421
  30 H :    0.102087
  31 H :    0.121482
  32 H :    0.285256

  Mayer bond orders larger than 0.100000
B(  0-C ,  1-C ) :   1.3268 B(  0-C ,  5-C ) :   1.3365 B(  0-C , 20-H ) :   0.9669
B(  1-C ,  2-C ) :   1.3361 B(  1-C , 21-H ) :   0.9666 B(  2-C ,  3-C ) :   1.3807
B(  2-C , 22-H ) :   0.9542 B(  3-C ,  4-C ) :   1.3358 B(  3-C , 14-C ) :   0.9804
B(  4-C ,  5-C ) :   1.3785 B(  4-C ,  6-C ) :   0.9559 B(  5-C , 23-H ) :   0.9565
B(  6-C ,  7-O ) :   2.1525 B(  6-C ,  8-C ) :   0.9525 B(  8-C ,  9-C ) :   1.4314
B(  8-C , 13-C ) :   1.2974 B(  9-C , 10-C ) :   1.2244 B(  9-C , 24-H ) :   0.9562
B( 10-C , 11-C ) :   1.3867 B( 10-C , 25-H ) :   0.9663 B( 11-C , 12-C ) :   1.2644
B( 11-C , 26-H ) :   0.9318 B( 12-C , 13-C ) :   1.2111 B( 12-C , 16-N ) :   1.3747
B( 13-C , 14-C ) :   1.0302 B( 14-C , 15-O ) :   1.9528 B( 15-O , 27-H ) :   0.1487
B( 16-N , 17-C ) :   1.0553 B( 16-N , 27-H ) :   0.7640 B( 17-C , 18-C ) :   1.0553
B( 17-C , 28-H ) :   0.9121 B( 17-C , 29-H ) :   0.9179 B( 18-C , 19-O ) :   1.0814
B( 18-C , 30-H ) :   0.9298 B( 18-C , 31-H ) :   0.9275 B( 19-O , 32-H ) :   0.8476

Dispersion correction           -0.046808634
FINAL SINGLE POINT ENERGY      -896.120000997991

DIPOLE MOMENT
-------------

Method             : SCF
Type of density    : Electron Density
Multiplicity       :   1
Irrep              :   0
Energy             :  -896.2171442309181657 Eh
Relativity type    :
Basis              : AO
                                X                 Y                 Z
Electronic contribution:    -11.379715431       3.473651096      -0.531970313
Nuclear contribution   :     12.937678164      -4.309576657       0.123302513
                        -----------------------------------------
Total Dipole Moment    :      1.557962733      -0.835925561      -0.408667801
                        -----------------------------------------
Magnitude (a.u.)       :      1.814670436
Magnitude (Debye)      :      4.612525686

Rotational constants in cm-1:             0.023267             0.007346             0.005776
Rotational constants in MHz :           697.526401           220.236057           173.149998

                             ****ORCA TERMINATED NORMALLY****
TOTAL RUN TIME: 0 days 0 hours 0 minutes 34 seconds 888 msec
