                         Program Version 6.0.0  -   RELEASE  -
|  1> ! r2scan-3c def2/J RI DEFGRID2 scfconv6 printgap
|  2> %output
|  3>     printlevel normal
|  4> end
|  5> * xyz 0 1
|  6> C 1.4983886241 -1.8270059544 -0.181539301
|  7> O 0.2538442873 -1.2869461393 0.2540923944
|  8> C 0.0129992691 0.0076665165 -0.1698894238
|  9> O 0.9381952709 0.8588972333 0.4072330927
| 10> C 0.8600790302 2.2075446817 -0.0458454176
| 11> O -1.2608046495 0.3865311727 0.2142192524
| 12> C -2.3079573361 -0.3498681089 -0.4114306191
| 13> H 2.3288012348 -1.2536826475 0.2326431522
| 14> H 1.548689394 -1.819114868 -1.2743672887
| 15> H 1.5117466003 -2.8457255578 0.1934706463
| 16> H 0.1002314122 0.0598636003 -1.2913430567
| 17> H -0.1032099628 2.6443332285 0.2208982592
| 18> H 0.9998055303 2.2475900104 -1.1301665703
| 19> H 1.668582974 2.724154708 0.4621508002
| 20> H -2.2422418514 -0.2454526137 -1.4984674374
| 21> H -3.2267741428 0.0938523898 -0.0405930533
| 22> H -2.2508891032 -1.4036240906 -0.1353997889
| 23> *
| 24>
| 25>                          ****END OF INPUT****

CARTESIAN COORDINATES (ANGSTROEM)
---------------------------------
  C      1.498389   -1.827006   -0.181539
  O      0.253844   -1.286946    0.254092
  C      0.012999    0.007667   -0.169889
  O      0.938195    0.858897    0.407233
  C      0.860079    2.207545   -0.045845
  O     -1.260805    0.386531    0.214219
  C     -2.307957   -0.349868   -0.411431
  H      2.328801   -1.253683    0.232643
  H      1.548689   -1.819115   -1.274367
  H      1.511747   -2.845726    0.193471
  H      0.100231    0.059864   -1.291343
  H     -0.103210    2.644333    0.220898
  H      0.999806    2.247590   -1.130167
  H      1.668583    2.724155    0.462151
  H     -2.242242   -0.245453   -1.498467
  H     -3.226774    0.093852   -0.040593
  H     -2.250889   -1.403624   -0.135400

 Total Charge           Charge          ....    0
 Multiplicity           Mult            ....    1
 Number of Electrons    NEL             ....   58
 Basis Dimension        Dim             ....  198

ORBITAL ENERGIES
----------------

  NO   OCC          E(Eh)            E(eV)
   0   2.0000     -18.960922      -515.9529
   1   2.0000     -18.960903      -515.9524
   2   2.0000     -18.960892      -515.9521
   3   2.0000     -10.174780      -276.8698
   4   2.0000     -10.073476      -274.1132
   5   2.0000     -10.073465      -274.1129
   6   2.0000     -10.073431      -274.1120
   7   2.0000      -1.069290       -29.0969
   8   2.0000      -0.982140       -26.7254
   9   2.0000      -0.982111       -26.7246
  10   2.0000      -0.706997       -19.2384
  11   2.0000      -0.653791       -17.7906
  12   2.0000      -0.653754       -17.7895
  13   2.0000      -0.567632       -15.4461
  14   2.0000      -0.489724       -13.3261
  15   2.0000      -0.486831       -13.2473
  16   2.0000      -0.486823       -13.2471
  17   2.0000      -0.416538       -11.3346
  18   2.0000      -0.416533       -11.3344
  19   2.0000      -0.394897       -10.7457
  20   2.0000      -0.394876       -10.7451
  21   2.0000      -0.389614       -10.6019
  22   2.0000      -0.380151       -10.3444
  23   2.0000      -0.307398        -8.3647
  24   2.0000      -0.307371        -8.3640
  25   2.0000      -0.297304        -8.0901
  26   2.0000      -0.246449        -6.7062
  27   2.0000      -0.246382        -6.7044
  28   2.0000      -0.235284        -6.4024
  29   0.0000       0.068961         1.8765
  30   0.0000       0.089513         2.4358
  31   0.0000       0.089542         2.4366
  32   0.0000       0.106405         2.8954
  33   0.0000       0.120571         3.2809

MULLIKEN ATOMIC CHARGES
-----------------------
   0 C :   -0.297501
   1 O :   -0.219483
   2 C :    0.106269
   3 O :   -0.219502
   4 C :   -0.297484
   5 O :   -0.219525
   6 C :   -0.297505
   7 H :    0.166384
   8 H :    0.131623
   9 H :    0.149688
  10 H :    0.101677
  11 H :    0.166339
  12 H :    0.131623
  13 H :    0.149699
  14 H :    0.131647
  15 H :    0.149697
  16 H :    0.166353
Sum of atomic charges:    0.0000000

LOEWDIN ATOMIC CHARGES
----------------------
   0 C :   -0.061229
   1 O :   -0.642351
   2 C :    0.417460
   3 O :   -0.642429
   4 C :   -0.061232
   5 O :   -0.642349
   6 C :   -0.061244
   7 H :    0.170825
   8 H :    0.158878
   9 H :    0.176774
  10 H :    0.174009
  11 H :    0.170773
  12 H :    0.158885
  13 H :    0.176786
  14 H :    0.158882
  15 H :    0.176793
  16 H :    0.170769

  Mayer bond orders larger than 0.100000
B(  0-C ,  1-O ) :   0.8615 B(  0-C ,  7-H ) :   0.9673 B(  0-C ,  8-H ) :   0.9639
B(  0-C ,  9-H ) :   0.9720 B(  1-O ,  2-C ) :   1.0307 B(  2-C ,  3-O ) :   1.0305
B(  2-C ,  5-O ) :   1.0307 B(  2-C , 10-H ) :   0.9736 B(  3-O ,  4-C ) :   0.8615
B(  4-C , 11-H ) :   0.9673 B(  4-C , 12-H ) :   0.9639 B(  4-C , 13-H ) :   0.9720
B(  5-O ,  6-C ) :   0.8615 B(  6-C , 14-H ) :   0.9639 B(  6-C , 15-H ) :   0.9720
B(  6-C , 16-H ) :   0.9673

Dispersion correction           -0.003881536
FINAL SINGLE POINT ENERGY      -383.995529348252

DIPOLE MOMENT
-------------

Method             : SCF
Type of density    : Electron Density
Multiplicity       :   1
Irrep              :   0
Energy             :  -384.0096391307792487 Eh
Relativity type    :
Basis              : AO
                                X                 Y                 Z
Electronic contribution:     -0.246522481      -0.148696169       3.137336003
Nuclear contribution   :      0.313024726       0.189076503      -3.984715620
                        -----------------------------------------
Total Dipole Moment    :      0.066502245       0.040380333      -0.847379616
                        -----------------------------------------
Magnitude (a.u.)       :      0.850943790
Magnitude (Debye)      :      2.162927224

Rotational constants in cm-1:             0.089183             0.089099             0.047898
Rotational constants in MHz :          2673.628897          2671.109079          1435.941464

                             ****ORCA TERMINATED NORMALLY****
TOTAL RUN TIME: 0 days 0 hours 0 minutes 23 seconds 346 msec
