                         Program Version 6.0.0  -   RELEASE  -
|  1> ! r2scan-3c def2/J RI DEFGRID2 scfconv6 printgap
|  2> %output
|  3>     printlevel normal
|  4> end
|  5> %cpcm
|  6>     smd true
|  7>     smdsolvent "water"
|  8> end
|  9> * xyz 0 1
| 10> C 1.4983886241 -1.8270059544 -0.181539301
| 11> O 0.2538442873 -1.2869461393 0.2540923944
| 12> C 0.0129992691 0.0076665165 -0.1698894238
| 13> O 0.9381952709 0.8588972333 0.4072330927
| 14> C 0.8600790302 2.2075446817 -0.0458454176
| 15> O -1.2608046495 0.3865311727 0.2142192524
| 16> C -2.3079573361 -0.3498681089 -0.4114306191
| 17> H 2.3288012348 -1.2536826475 0.2326431522
| 18> H 1.548689394 -1.819114868 -1.2743672887
| 19> H 1.5117466003 -2.8457255578 0.1934706463
| 20> H 0.1002314122 0.0598636003 -1.2913430567
| 21> H -0.1032099628 2.6443332285 0.2208982592
| 22> H 0.9998055303 2.2475900104 -1.1301665703
| 23> H 1.668582974 2.724154708 0.4621508002
| 24> H -2.2422418514 -0.2454526137 -1.4984674374
| 25> H -3.2267741428 0.0938523898 -0.0405930533
| 26> H -2.2508891032 -1.4036240906 -0.1353997889
| 27> *
| 28>
| 29>                          ****END OF INPUT****

CARTESIAN COORDINATES (ANGSTROEM)
---------------------------------
  C      1.498389   -1.827006   -0.181539
  O      0.253844   -1.286946    0.254092
  C      0.012999    0.007667   -0.169889
  O      0.938195    0.858897    0.407233
  C      0.860079    2.207545   -0.045845
  O     -1.260805    0.386531    0.214219
  C     -2.307957   -0.349868   -0.411431
  H      2.328801   -1.253683    0.232643
  H      1.548689   -1.819115   -1.274367
  H      1.511747   -2.845726    0.193471
  H      0.100231    0.059864   -1.291343
  H     -0.103210    2.644333    0.220898
  H      0.999806    2.247590   -1.130167
  H      1.668583    2.724155    0.462151
  H     -2.242242   -0.245453   -1.498467
  H     -3.226774    0.093852   -0.040593
  H     -2.250889   -1.403624   -0.135400

 Total Charge           Charge          ....    0
 Multiplicity           Mult            ....    1
 Number of Electrons    NEL             ....   58
 Basis Dimension        Dim             ....  198

ORBITAL ENERGIES
----------------

  NO   OCC          E(Eh)            E(eV)
   0   2.0000     -18.970968      -516.2263
   1   2.0000     -18.970959      -516.2260
   2   2.0000     -18.970917      -516.2249
   3   2.0000     -10.178623      -276.9744
   4   2.0000     -10.069201      -273.9969
   5   2.0000     -10.069185      -273.9965
   6   2.0000     -10.069164      -273.9959
   7   2.0000      -1.078821       -29.3562
   8   2.0000      -0.991105       -26.9693
   9   2.0000      -0.991079       -26.9686
  10   2.0000      -0.709337       -19.3021
  11   2.0000      -0.653140       -17.7728
  12   2.0000      -0.653109       -17.7720
  13   2.0000      -0.568846       -15.4791
  14   2.0000      -0.492882       -13.4120
  15   2.0000      -0.491123       -13.3641
  16   2.0000      -0.491112       -13.3638
  17   2.0000      -0.417188       -11.3523
  18   2.0000      -0.417174       -11.3519
  19   2.0000      -0.395556       -10.7636
  20   2.0000      -0.395534       -10.7630
  21   2.0000      -0.387811       -10.5529
  22   2.0000      -0.374651       -10.1948
  23   2.0000      -0.312947        -8.5157
  24   2.0000      -0.312931        -8.5153
  25   2.0000      -0.307313        -8.3624
  26   2.0000      -0.254493        -6.9251
  27   2.0000      -0.254430        -6.9234
  28   2.0000      -0.243090        -6.6148
  29   0.0000       0.068476         1.8633
  30   0.0000       0.091131         2.4798
  31   0.0000       0.091169         2.4808
  32   0.0000       0.116166         3.1610
  33   0.0000       0.129029         3.5111

MULLIKEN ATOMIC CHARGES
-----------------------
   0 C :   -0.313731
   1 O :   -0.273659
   2 C :    0.117925
   3 O :   -0.273442
   4 C :   -0.313698
   5 O :   -0.272857
   6 C :   -0.313949
   7 H :    0.168610
   8 H :    0.162264
   9 H :    0.170962
  10 H :    0.137803
  11 H :    0.168650
  12 H :    0.162283
  13 H :    0.170962
  14 H :    0.162409
  15 H :    0.170961
  16 H :    0.168508
Sum of atomic charges:    0.0000000

LOEWDIN ATOMIC CHARGES
----------------------
   0 C :   -0.058623
   1 O :   -0.674678
   2 C :    0.415531
   3 O :   -0.674747
   4 C :   -0.058674
   5 O :   -0.674486
   6 C :   -0.058710
   7 H :    0.172774
   8 H :    0.172248
   9 H :    0.185115
  10 H :    0.194049
  11 H :    0.172743
  12 H :    0.172266
  13 H :    0.185113
  14 H :    0.172292
  15 H :    0.185115
  16 H :    0.172673

  Mayer bond orders larger than 0.100000
B(  0-C ,  1-O ) :   0.8526 B(  0-C ,  7-H ) :   0.9615 B(  0-C ,  8-H ) :   0.9581
B(  0-C ,  9-H ) :   0.9627 B(  1-O ,  2-C ) :   1.0307 B(  2-C ,  3-O ) :   1.0307
B(  2-C ,  5-O ) :   1.0309 B(  2-C , 10-H ) :   0.9655 B(  3-O ,  4-C ) :   0.8526
B(  4-C , 11-H ) :   0.9615 B(  4-C , 12-H ) :   0.9581 B(  4-C , 13-H ) :   0.9626
B(  5-O ,  6-C ) :   0.8525 B(  6-C , 14-H ) :   0.9582 B(  6-C , 15-H ) :   0.9627
B(  6-C , 16-H ) :   0.9615

Dispersion correction           -0.003881536
FINAL SINGLE POINT ENERGY      -384.001603015858

DIPOLE MOMENT
-------------

Method             : SCF
Type of density    : Electron Density
Multiplicity       :   1
Irrep              :   0
Energy             :  -384.0157127983857208 Eh
Relativity type    :
Basis              : AO
                                X                 Y                 Z
Electronic contribution:     -0.206073470      -0.124689997       2.624765078
Nuclear contribution   :      0.313024726       0.189076503      -3.984715620
                        -----------------------------------------
Total Dipole Moment    :      0.106951256       0.064386506      -1.359950542
                        -----------------------------------------
Magnitude (a.u.)       :      1.365668213
Magnitude (Debye)      :      3.471252734

Rotational constants in cm-1:             0.089183             0.089099             0.047898
Rotational constants in MHz :          2673.628897          2671.109079          1435.941464

                             ****ORCA TERMINATED NORMALLY****
TOTAL RUN TIME: 0 days 0 hours 0 minutes 30 seconds 446 msec
