                         Program Version 6.0.0  -   RELEASE  -
|  1> ! pbe def2-sv(p) def2/J RI DEFGRID1 loosescf d4 GCP(DFT/SV(P)) printgap
|  2> %output
|  3>     printlevel normal
|  4> end
|  5> * xyz 0 1
|  6> C 2.2635653224 1.1600195597 -0.0208871064
|  7> C 1.2431740701 0.0723232736 0.3103113318
|  8> C 1.7993777986 -1.2959137891 -0.0934131086
|  9> N -0.0087253562 0.3396163034 -0.3889091489
| 10> C -1.2447822739 0.0212409796 0.3168071916
| 11> C -1.7367506324 -1.3759422908 -0.0708937716
| 12> C -2.3154763252 1.0565426774 -0.0233059089
| 13> H 1.9054492168 2.1359005103 0.3021958054
| 14> H 3.2062174584 0.9581211202 0.4806944012
| 15> H 2.437707002 1.1866511889 -1.0937041173
| 16> H 1.0764347597 0.069940611 1.405317474
| 17> H 1.9193566545 -1.3353723879 -1.172047827
| 18> H 1.127032675 -2.0926562638 0.2082813659
| 19> H 2.7640544315 -1.4610320945 0.3794288138
| 20> H -0.0295847834 1.3104026869 -0.6765868589
| 21> H -1.0760669969 0.038440026 1.4115552587
| 22> H -2.6971052354 -1.5767340117 0.39686212
| 23> H -1.8459012948 -1.4359809897 -1.1497331934
| 24> H -1.0327404986 -2.1379697742 0.2480036309
| 25> H -3.2457909338 0.8176198324 0.484988434
| 26> H -2.4947506798 1.0619085525 -1.0955527707
| 27> H -2.0015944976 2.0518220366 0.2863163495
| 28> *
| 29>
| 30>                          ****END OF INPUT****

CARTESIAN COORDINATES (ANGSTROEM)
---------------------------------
  C      2.263565    1.160020   -0.020887
  C      1.243174    0.072323    0.310311
  C      1.799378   -1.295914   -0.093413
  N     -0.008725    0.339616   -0.388909
  C     -1.244782    0.021241    0.316807
  C     -1.736751   -1.375942   -0.070894
  C     -2.315476    1.056543   -0.023306
  H      1.905449    2.135901    0.302196
  H      3.206217    0.958121    0.480694
  H      2.437707    1.186651   -1.093704
  H      1.076435    0.069941    1.405317
  H      1.919357   -1.335372   -1.172048
  H      1.127033   -2.092656    0.208281
  H      2.764054   -1.461032    0.379429
  H     -0.029585    1.310403   -0.676587
  H     -1.076067    0.038440    1.411555
  H     -2.697105   -1.576734    0.396862
  H     -1.845901   -1.435981   -1.149733
  H     -1.032740   -2.137970    0.248004
  H     -3.245791    0.817620    0.484988
  H     -2.494751    1.061909   -1.095553
  H     -2.001594    2.051822    0.286316

 Total Charge           Charge          ....    0
 Multiplicity           Mult            ....    1
 Number of Electrons    NEL             ....   58
 Basis Dimension        Dim             ....  128

ORBITAL ENERGIES
----------------

  NO   OCC          E(Eh)            E(eV)
   0   2.0000     -13.959735      -379.8637
   1   2.0000      -9.914306      -269.7820
   2   2.0000      -9.914256      -269.7806
   3   2.0000      -9.874948      -268.7110
   4   2.0000      -9.874896      -268.7096
   5   2.0000      -9.862900      -268.3832
   6   2.0000      -9.862794      -268.3803
   7   2.0000      -0.817599       -22.2480
   8   2.0000      -0.707919       -19.2635
   9   2.0000      -0.650772       -17.7084
  10   2.0000      -0.614391       -16.7184
  11   2.0000      -0.604758       -16.4563
  12   2.0000      -0.515555       -14.0290
  13   2.0000      -0.508701       -13.8425
  14   2.0000      -0.428995       -11.6736
  15   2.0000      -0.420179       -11.4337
  16   2.0000      -0.409101       -11.1322
  17   2.0000      -0.383245       -10.4286
  18   2.0000      -0.358239        -9.7482
  19   2.0000      -0.346137        -9.4189
  20   2.0000      -0.343294        -9.3415
  21   2.0000      -0.335058        -9.1174
  22   2.0000      -0.332474        -9.0471
  23   2.0000      -0.310359        -8.4453
  24   2.0000      -0.306361        -8.3365
  25   2.0000      -0.289762        -7.8848
  26   2.0000      -0.288873        -7.8606
  27   2.0000      -0.273053        -7.4301
  28   2.0000      -0.170345        -4.6353
  29   0.0000       0.030758         0.8370
  30   0.0000       0.057128         1.5545
  31   0.0000       0.060929         1.6580
  32   0.0000       0.072740         1.9793
  33   0.0000       0.085354         2.3226

MULLIKEN ATOMIC CHARGES
-----------------------
   0 C :   -0.278089
   1 C :   -0.075615
   2 C :   -0.220994
   3 N :   -0.329576
   4 C :   -0.076358
   5 C :   -0.222008
   6 C :   -0.277859
   7 H :    0.099188
   8 H :    0.104401
   9 H :    0.103917
  10 H :    0.057102
  11 H :    0.090980
  12 H :    0.102064
  13 H :    0.083947
  14 H :    0.196041
  15 H :    0.057033
  16 H :    0.084093
  17 H :    0.091345
  18 H :    0.102886
  19 H :    0.104381
  20 H :    0.104016
  21 H :    0.099103
Sum of atomic charges:    0.0000000

LOEWDIN ATOMIC CHARGES
----------------------
   0 C :   -0.339623
   1 C :   -0.097417
   2 C :   -0.339803
   3 N :   -0.249376
   4 C :   -0.097460
   5 C :   -0.339960
   6 C :   -0.339573
   7 H :    0.113835
   8 H :    0.123612
   9 H :    0.120591
  10 H :    0.093622
  11 H :    0.118776
  12 H :    0.114979
  13 H :    0.113215
  14 H :    0.205840
  15 H :    0.093380
  16 H :    0.113346
  17 H :    0.118955
  18 H :    0.114991
  19 H :    0.123599
  20 H :    0.120675
  21 H :    0.113795

  Mayer bond orders larger than 0.100000
B(  0-C ,  1-C ) :   1.1184 B(  0-C ,  7-H ) :   0.9452 B(  0-C ,  8-H ) :   0.9491
B(  0-C ,  9-H ) :   0.9447 B(  1-C ,  2-C ) :   1.1155 B(  1-C ,  3-N ) :   1.0537
B(  1-C , 10-H ) :   0.8918 B(  2-C , 11-H ) :   0.9433 B(  2-C , 12-H ) :   0.9407
B(  2-C , 13-H ) :   0.9430 B(  3-N ,  4-C ) :   1.0547 B(  3-N , 14-H ) :   0.8778
B(  4-C ,  5-C ) :   1.1152 B(  4-C ,  6-C ) :   1.1181 B(  4-C , 15-H ) :   0.8919
B(  5-C , 16-H ) :   0.9430 B(  5-C , 17-H ) :   0.9433 B(  5-C , 18-H ) :   0.9405
B(  6-C , 19-H ) :   0.9490 B(  6-C , 20-H ) :   0.9450 B(  6-C , 21-H ) :   0.9452

Dispersion correction           -0.017326563
FINAL SINGLE POINT ENERGY      -291.671184456642

DIPOLE MOMENT
-------------

Method             : SCF
Type of density    : Electron Density
Multiplicity       :   1
Irrep              :   0
Energy             :  -291.7506260470290727 Eh
Relativity type    :
Basis              : AO
                                X                 Y                 Z
Electronic contribution:     -0.018810148       0.721623152      -0.167297427
Nuclear contribution   :      0.011883190      -0.381795221       0.388167964
                        -----------------------------------------
Total Dipole Moment    :     -0.006926958       0.339827931       0.220870537
                        -----------------------------------------
Magnitude (a.u.)       :      0.405357619
Magnitude (Debye)      :      1.030337186

Rotational constants in cm-1:             0.138559             0.052444             0.040867
Rotational constants in MHz :          4153.892445          1572.221962          1225.147346

                             ****ORCA TERMINATED NORMALLY****
TOTAL RUN TIME: 0 days 0 hours 0 minutes 10 seconds 324 msec
