                         Program Version 6.0.0  -   RELEASE  -
|  1> ! r2scan-3c def2/J RI DEFGRID2 scfconv6 printgap
|  2> %output
|  3>     printlevel normal
|  4> end
|  5> * xyz 0 1
|  6> C -3.6385185758 -0.6185266138 0.2375514181
|  7> C -2.3054495897 -0.3086111021 -0.4308431212
|  8> C -1.1983463514 -0.1031416377 0.6002116888
|  9> C 0.1062073482 0.3009524247 -0.0346700549
| 10> O 0.2344301347 0.7280116929 -1.1622966867
| 11> O 1.1187787885 0.1524090381 0.8146020449
| 12> C 2.4401788961 0.5065705881 0.3719752128
| 13> C 3.1035419681 -0.649926278 -0.3601489421
| 14> H -4.4092352757 -0.7708467987 -0.5128169572
| 15> H -3.5616114076 -1.5197309725 0.8406224613
| 16> H -3.9425697334 0.2029154892 0.8814321737
| 17> H -2.3910130203 0.592655138 -1.0405379977
| 18> H -2.0257001823 -1.1257538789 -1.0983956425
| 19> H -1.0289497765 -1.0050041227 1.1893884402
| 20> H -1.4767985932 0.6938366278 1.2943571698
| 21> H 2.3667893417 1.3826226118 -0.2795780391
| 22> H 2.9769673163 0.7578328906 1.2871343708
| 23> H 4.1202854818 -0.3747270748 -0.620636896
| 24> H 3.1208232404 -1.5329967246 0.2728074781
| 25> H 2.5547342642 -0.8769640235 -1.2714545087
| 26> *
| 27>
| 28>                          ****END OF INPUT****

CARTESIAN COORDINATES (ANGSTROEM)
---------------------------------
  C     -3.638519   -0.618527    0.237551
  C     -2.305450   -0.308611   -0.430843
  C     -1.198346   -0.103142    0.600212
  C      0.106207    0.300952   -0.034670
  O      0.234430    0.728012   -1.162297
  O      1.118779    0.152409    0.814602
  C      2.440179    0.506571    0.371975
  C      3.103542   -0.649926   -0.360149
  H     -4.409235   -0.770847   -0.512817
  H     -3.561611   -1.519731    0.840622
  H     -3.942570    0.202915    0.881432
  H     -2.391013    0.592655   -1.040538
  H     -2.025700   -1.125754   -1.098396
  H     -1.028950   -1.005004    1.189388
  H     -1.476799    0.693837    1.294357
  H      2.366789    1.382623   -0.279578
  H      2.976967    0.757833    1.287134
  H      4.120285   -0.374727   -0.620637
  H      3.120823   -1.532997    0.272807
  H      2.554734   -0.876964   -1.271455

 Total Charge           Charge          ....    0
 Multiplicity           Mult            ....    1
 Number of Electrons    NEL             ....   64
 Basis Dimension        Dim             ....  222

ORBITAL ENERGIES
----------------

  NO   OCC          E(Eh)            E(eV)
   0   2.0000     -18.994486      -516.8662
   1   2.0000     -18.928689      -515.0758
   2   2.0000     -10.151738      -276.2428
   3   2.0000     -10.090273      -274.5703
   4   2.0000     -10.041650      -273.2472
   5   2.0000     -10.028789      -272.8972
   6   2.0000     -10.027876      -272.8724
   7   2.0000     -10.019425      -272.6424
   8   2.0000      -1.069690       -29.1077
   9   2.0000      -0.975653       -26.5489
  10   2.0000      -0.770914       -20.9776
  11   2.0000      -0.739389       -20.1198
  12   2.0000      -0.680168       -18.5083
  13   2.0000      -0.621790       -16.9198
  14   2.0000      -0.562545       -15.3076
  15   2.0000      -0.517951       -14.0942
  16   2.0000      -0.473604       -12.8874
  17   2.0000      -0.455993       -12.4082
  18   2.0000      -0.445464       -12.1217
  19   2.0000      -0.417971       -11.3736
  20   2.0000      -0.411465       -11.1965
  21   2.0000      -0.388740       -10.5782
  22   2.0000      -0.374673       -10.1954
  23   2.0000      -0.365297        -9.9402
  24   2.0000      -0.350942        -9.5496
  25   2.0000      -0.337868        -9.1938
  26   2.0000      -0.321568        -8.7503
  27   2.0000      -0.312010        -8.4902
  28   2.0000      -0.305416        -8.3108
  29   2.0000      -0.301788        -8.2121
  30   2.0000      -0.270470        -7.3599
  31   2.0000      -0.236441        -6.4339
  32   0.0000      -0.012568        -0.3420
  33   0.0000       0.078144         2.1264
  34   0.0000       0.090077         2.4511
  35   0.0000       0.104446         2.8421
  36   0.0000       0.123647         3.3646

MULLIKEN ATOMIC CHARGES
-----------------------
   0 C :   -0.466500
   1 C :   -0.231276
   2 C :   -0.313211
   3 C :    0.384603
   4 O :   -0.432800
   5 O :   -0.177992
   6 C :   -0.138500
   7 C :   -0.469799
   8 H :    0.150315
   9 H :    0.139476
  10 H :    0.141949
  11 H :    0.159789
  12 H :    0.141974
  13 H :    0.162550
  14 H :    0.164469
  15 H :    0.166372
  16 H :    0.147834
  17 H :    0.146508
  18 H :    0.151228
  19 H :    0.173012
Sum of atomic charges:   -0.0000000

LOEWDIN ATOMIC CHARGES
----------------------
   0 C :   -0.422059
   1 C :   -0.296664
   2 C :   -0.232010
   3 C :    0.364231
   4 O :   -0.437395
   5 O :   -0.596717
   6 C :    0.026486
   7 C :   -0.390931
   8 H :    0.152596
   9 H :    0.149504
  10 H :    0.149738
  11 H :    0.166329
  12 H :    0.158373
  13 H :    0.180111
  14 H :    0.182561
  15 H :    0.187307
  16 H :    0.177415
  17 H :    0.158932
  18 H :    0.156793
  19 H :    0.165401

  Mayer bond orders larger than 0.100000
B(  0-C ,  1-C ) :   0.8790 B(  0-C ,  8-H ) :   0.9758 B(  0-C ,  9-H ) :   0.9791
B(  0-C , 10-H ) :   0.9868 B(  1-C ,  2-C ) :   0.9562 B(  1-C , 11-H ) :   0.9646
B(  1-C , 12-H ) :   0.9628 B(  2-C ,  3-C ) :   0.9965 B(  2-C , 13-H ) :   0.9610
B(  2-C , 14-H ) :   0.9389 B(  3-C ,  4-O ) :   1.8300 B(  3-C ,  5-O ) :   1.0718
B(  5-O ,  6-C ) :   0.8172 B(  6-C ,  7-C ) :   0.9374 B(  6-C , 15-H ) :   0.9681
B(  6-C , 16-H ) :   0.9617 B(  7-C , 17-H ) :   0.9650 B(  7-C , 18-H ) :   0.9738
B(  7-C , 19-H ) :   0.9719

Dispersion correction           -0.004904688
FINAL SINGLE POINT ENERGY      -386.236832542226

DIPOLE MOMENT
-------------

Method             : SCF
Type of density    : Electron Density
Multiplicity       :   1
Irrep              :   0
Energy             :  -386.2436369724935616 Eh
Relativity type    :
Basis              : AO
                                X                 Y                 Z
Electronic contribution:      3.669754970       3.086653316      -0.271554683
Nuclear contribution   :     -3.447659645      -3.341979983       0.878899495
                        -----------------------------------------
Total Dipole Moment    :      0.222095325      -0.255326667       0.607344812
                        -----------------------------------------
Magnitude (a.u.)       :      0.695259492
Magnitude (Debye)      :      1.767209185

Rotational constants in cm-1:             0.194702             0.028480             0.027368
Rotational constants in MHz :          5837.025848           853.810663           820.457262

                             ****ORCA TERMINATED NORMALLY****
TOTAL RUN TIME: 0 days 0 hours 0 minutes 33 seconds 146 msec
