                         Program Version 6.0.0  -   RELEASE  -
|  1> ! r2scan-3c def2/J RI DEFGRID2 scfconv6 printgap
|  2> %output
|  3>     printlevel normal
|  4> end
|  5> %cpcm
|  6>     smd true
|  7>     smdsolvent "water"
|  8> end
|  9> * xyz 0 1
| 10> C -3.6385185758 -0.6185266138 0.2375514181
| 11> C -2.3054495897 -0.3086111021 -0.4308431212
| 12> C -1.1983463514 -0.1031416377 0.6002116888
| 13> C 0.1062073482 0.3009524247 -0.0346700549
| 14> O 0.2344301347 0.7280116929 -1.1622966867
| 15> O 1.1187787885 0.1524090381 0.8146020449
| 16> C 2.4401788961 0.5065705881 0.3719752128
| 17> C 3.1035419681 -0.649926278 -0.3601489421
| 18> H -4.4092352757 -0.7708467987 -0.5128169572
| 19> H -3.5616114076 -1.5197309725 0.8406224613
| 20> H -3.9425697334 0.2029154892 0.8814321737
| 21> H -2.3910130203 0.592655138 -1.0405379977
| 22> H -2.0257001823 -1.1257538789 -1.0983956425
| 23> H -1.0289497765 -1.0050041227 1.1893884402
| 24> H -1.4767985932 0.6938366278 1.2943571698
| 25> H 2.3667893417 1.3826226118 -0.2795780391
| 26> H 2.9769673163 0.7578328906 1.2871343708
| 27> H 4.1202854818 -0.3747270748 -0.620636896
| 28> H 3.1208232404 -1.5329967246 0.2728074781
| 29> H 2.5547342642 -0.8769640235 -1.2714545087
| 30> *
| 31>
| 32>                          ****END OF INPUT****

CARTESIAN COORDINATES (ANGSTROEM)
---------------------------------
  C     -3.638519   -0.618527    0.237551
  C     -2.305450   -0.308611   -0.430843
  C     -1.198346   -0.103142    0.600212
  C      0.106207    0.300952   -0.034670
  O      0.234430    0.728012   -1.162297
  O      1.118779    0.152409    0.814602
  C      2.440179    0.506571    0.371975
  C      3.103542   -0.649926   -0.360149
  H     -4.409235   -0.770847   -0.512817
  H     -3.561611   -1.519731    0.840622
  H     -3.942570    0.202915    0.881432
  H     -2.391013    0.592655   -1.040538
  H     -2.025700   -1.125754   -1.098396
  H     -1.028950   -1.005004    1.189388
  H     -1.476799    0.693837    1.294357
  H      2.366789    1.382623   -0.279578
  H      2.976967    0.757833    1.287134
  H      4.120285   -0.374727   -0.620637
  H      3.120823   -1.532997    0.272807
  H      2.554734   -0.876964   -1.271455

 Total Charge           Charge          ....    0
 Multiplicity           Mult            ....    1
 Number of Electrons    NEL             ....   64
 Basis Dimension        Dim             ....  222

ORBITAL ENERGIES
----------------

  NO   OCC          E(Eh)            E(eV)
   0   2.0000     -19.000375      -517.0265
   1   2.0000     -18.943956      -515.4912
   2   2.0000     -10.162076      -276.5241
   3   2.0000     -10.082856      -274.3685
   4   2.0000     -10.035258      -273.0733
   5   2.0000     -10.024100      -272.7696
   6   2.0000     -10.017957      -272.6025
   7   2.0000     -10.010559      -272.4012
   8   2.0000      -1.077243       -29.3133
   9   2.0000      -0.988776       -26.9060
  10   2.0000      -0.766533       -20.8584
  11   2.0000      -0.733182       -19.9509
  12   2.0000      -0.674243       -18.3471
  13   2.0000      -0.616837       -16.7850
  14   2.0000      -0.556785       -15.1509
  15   2.0000      -0.516693       -14.0599
  16   2.0000      -0.473950       -12.8968
  17   2.0000      -0.457213       -12.4414
  18   2.0000      -0.452168       -12.3041
  19   2.0000      -0.417576       -11.3628
  20   2.0000      -0.408607       -11.1188
  21   2.0000      -0.382282       -10.4024
  22   2.0000      -0.370110       -10.0712
  23   2.0000      -0.358756        -9.7623
  24   2.0000      -0.346390        -9.4257
  25   2.0000      -0.337381        -9.1806
  26   2.0000      -0.316790        -8.6203
  27   2.0000      -0.306329        -8.3356
  28   2.0000      -0.303120        -8.2483
  29   2.0000      -0.296761        -8.0753
  30   2.0000      -0.276781        -7.5316
  31   2.0000      -0.252029        -6.8581
  32   0.0000      -0.020355        -0.5539
  33   0.0000       0.080864         2.2004
  34   0.0000       0.096165         2.6168
  35   0.0000       0.113691         3.0937
  36   0.0000       0.132436         3.6038

MULLIKEN ATOMIC CHARGES
-----------------------
   0 C :   -0.514857
   1 C :   -0.245591
   2 C :   -0.319817
   3 C :    0.424109
   4 O :   -0.514642
   5 O :   -0.198820
   6 C :   -0.144744
   7 C :   -0.494873
   8 H :    0.160073
   9 H :    0.155144
  10 H :    0.157470
  11 H :    0.153560
  12 H :    0.155776
  13 H :    0.183734
  14 H :    0.195371
  15 H :    0.170961
  16 H :    0.173369
  17 H :    0.169882
  18 H :    0.165416
  19 H :    0.168477
Sum of atomic charges:    0.0000000

LOEWDIN ATOMIC CHARGES
----------------------
   0 C :   -0.426873
   1 C :   -0.299342
   2 C :   -0.228882
   3 C :    0.375557
   4 O :   -0.496098
   5 O :   -0.600596
   6 C :    0.030861
   7 C :   -0.393878
   8 H :    0.154920
   9 H :    0.154354
  10 H :    0.154296
  11 H :    0.162235
  12 H :    0.160076
  13 H :    0.189770
  14 H :    0.194624
  15 H :    0.188718
  16 H :    0.188575
  17 H :    0.167528
  18 H :    0.161799
  19 H :    0.162357

  Mayer bond orders larger than 0.100000
B(  0-C ,  1-C ) :   0.8810 B(  0-C ,  8-H ) :   0.9727 B(  0-C ,  9-H ) :   0.9772
B(  0-C , 10-H ) :   0.9836 B(  1-C ,  2-C ) :   0.9360 B(  1-C , 11-H ) :   0.9649
B(  1-C , 12-H ) :   0.9655 B(  2-C ,  3-C ) :   1.0041 B(  2-C , 13-H ) :   0.9495
B(  2-C , 14-H ) :   0.9251 B(  3-C ,  4-O ) :   1.7689 B(  3-C ,  5-O ) :   1.0934
B(  5-O ,  6-C ) :   0.7985 B(  6-C ,  7-C ) :   0.9363 B(  6-C , 15-H ) :   0.9643
B(  6-C , 16-H ) :   0.9522 B(  7-C , 17-H ) :   0.9601 B(  7-C , 18-H ) :   0.9697
B(  7-C , 19-H ) :   0.9698

Dispersion correction           -0.004904688
FINAL SINGLE POINT ENERGY      -386.241662341235

DIPOLE MOMENT
-------------

Method             : SCF
Type of density    : Electron Density
Multiplicity       :   1
Irrep              :   0
Energy             :  -386.2484667715024216 Eh
Relativity type    :
Basis              : AO
                                X                 Y                 Z
Electronic contribution:      3.736771433       2.979595604       0.089353136
Nuclear contribution   :     -3.447659645      -3.341979983       0.878899495
                        -----------------------------------------
Total Dipole Moment    :      0.289111788      -0.362384379       0.968252631
                        -----------------------------------------
Magnitude (a.u.)       :      1.073508836
Magnitude (Debye)      :      2.728642612

Rotational constants in cm-1:             0.194702             0.028480             0.027368
Rotational constants in MHz :          5837.025848           853.810663           820.457262

                             ****ORCA TERMINATED NORMALLY****
TOTAL RUN TIME: 0 days 0 hours 0 minutes 39 seconds 262 msec
