                         Program Version 6.0.0  -   RELEASE  -
|  1> ! r2scan-3c def2/J RI DEFGRID2 scfconv6 printgap
|  2> %output
|  3>     printlevel normal
|  4> end
|  5> * xyz 0 1
|  6> C 2.9557825404 0.1870519078 0.5873287644
|  7> C 1.8921885111 -0.7413009526 0.0111217247
|  8> C 0.9530271665 -0.0480883246 -0.9778474306
|  9> C 0.1189202408 1.0904608388 -0.3868559577
| 10> C -0.8653570526 0.6494103203 0.681356498
| 11> Cl -2.1033679764 -0.4729498977 0.0076642949
| 12> H 3.5030187294 0.6793321411 -0.2133342079
| 13> H 3.6632752958 -0.3810709634 1.186513087
| 14> H 2.512059851 0.9484992787 1.222943622
| 15> H 2.3873222987 -1.5595409357 -0.5167630022
| 16> H 1.3160050494 -1.1869778839 0.8235691887
| 17> H 0.2758996706 -0.7943399589 -1.399262058
| 18> H 1.5480007727 0.358030666 -1.7983727645
| 19> H -0.4313191345 1.5743315011 -1.1958329469
| 20> H 0.7756072778 1.8360961946 0.062916203
| 21> H -0.3783926517 0.1090096708 1.4897860095
| 22> H -1.4197480021 1.4968707668 1.0799426611
| 23> *
| 24>
| 25>                          ****END OF INPUT****

CARTESIAN COORDINATES (ANGSTROEM)
---------------------------------
  C      2.955783    0.187052    0.587329
  C      1.892189   -0.741301    0.011122
  C      0.953027   -0.048088   -0.977847
  C      0.118920    1.090461   -0.386856
  C     -0.865357    0.649410    0.681356
  Cl    -2.103368   -0.472950    0.007664
  H      3.503019    0.679332   -0.213334
  H      3.663275   -0.381071    1.186513
  H      2.512060    0.948499    1.222944
  H      2.387322   -1.559541   -0.516763
  H      1.316005   -1.186978    0.823569
  H      0.275900   -0.794340   -1.399262
  H      1.548001    0.358031   -1.798373
  H     -0.431319    1.574332   -1.195833
  H      0.775607    1.836096    0.062916
  H     -0.378393    0.109010    1.489786
  H     -1.419748    1.496871    1.079943

 Total Charge           Charge          ....    0
 Multiplicity           Mult            ....    1
 Number of Electrons    NEL             ....   58
 Basis Dimension        Dim             ....  177

ORBITAL ENERGIES
----------------

  NO   OCC          E(Eh)            E(eV)
   0   2.0000    -101.197457     -2753.7228
   1   2.0000     -10.091340      -274.5993
   2   2.0000     -10.040764      -273.2231
   3   2.0000     -10.029117      -272.9062
   4   2.0000     -10.028033      -272.8767
   5   2.0000     -10.021322      -272.6940
   6   2.0000      -9.353459      -254.5205
   7   2.0000      -7.099600      -193.1899
   8   2.0000      -7.089565      -192.9169
   9   2.0000      -7.089515      -192.9155
  10   2.0000      -0.822144       -22.3717
  11   2.0000      -0.765761       -20.8374
  12   2.0000      -0.708445       -19.2778
  13   2.0000      -0.645726       -17.5711
  14   2.0000      -0.588812       -16.0224
  15   2.0000      -0.526969       -14.3396
  16   2.0000      -0.457175       -12.4404
  17   2.0000      -0.446265       -12.1435
  18   2.0000      -0.406263       -11.0550
  19   2.0000      -0.397632       -10.8201
  20   2.0000      -0.394218       -10.7272
  21   2.0000      -0.354453        -9.6451
  22   2.0000      -0.345379        -9.3983
  23   2.0000      -0.341907        -9.3038
  24   2.0000      -0.302996        -8.2449
  25   2.0000      -0.297502        -8.0954
  26   2.0000      -0.296955        -8.0805
  27   2.0000      -0.263634        -7.1738
  28   2.0000      -0.261828        -7.1247
  29   0.0000       0.008520         0.2318
  30   0.0000       0.076797         2.0897
  31   0.0000       0.109721         2.9857
  32   0.0000       0.111137         3.0242
  33   0.0000       0.117495         3.1972

MULLIKEN ATOMIC CHARGES
-----------------------
   0 C :   -0.479136
   1 C :   -0.252528
   2 C :   -0.269034
   3 C :   -0.285344
   4 C :   -0.175566
   5 Cl:   -0.206209
   6 H :    0.147035
   7 H :    0.148776
   8 H :    0.142390
   9 H :    0.145113
  10 H :    0.141031
  11 H :    0.165262
  12 H :    0.145187
  13 H :    0.159532
  14 H :    0.150262
  15 H :    0.157910
  16 H :    0.165319
Sum of atomic charges:   -0.0000000

LOEWDIN ATOMIC CHARGES
----------------------
   0 C :   -0.426931
   1 C :   -0.317889
   2 C :   -0.319417
   3 C :   -0.328437
   4 C :   -0.317423
   5 Cl:   -0.006837
   6 H :    0.151401
   7 H :    0.152283
   8 H :    0.145976
   9 H :    0.155142
  10 H :    0.150154
  11 H :    0.164137
  12 H :    0.156427
  13 H :    0.164163
  14 H :    0.162685
  15 H :    0.156542
  16 H :    0.158023

  Mayer bond orders larger than 0.100000
B(  0-C ,  1-C ) :   0.8920 B(  0-C ,  6-H ) :   0.9802 B(  0-C ,  7-H ) :   0.9688
B(  0-C ,  8-H ) :   0.9810 B(  1-C ,  2-C ) :   0.9031 B(  1-C ,  9-H ) :   0.9624
B(  1-C , 10-H ) :   0.9836 B(  2-C ,  3-C ) :   0.8969 B(  2-C , 11-H ) :   0.9660
B(  2-C , 12-H ) :   0.9754 B(  3-C ,  4-C ) :   0.9211 B(  3-C , 13-H ) :   0.9588
B(  3-C , 14-H ) :   0.9688 B(  4-C ,  5-Cl) :   0.9767 B(  4-C , 15-H ) :   0.9700
B(  4-C , 16-H ) :   0.9537

Dispersion correction           -0.004559056
FINAL SINGLE POINT ENERGY      -657.267674884260

DIPOLE MOMENT
-------------

Method             : SCF
Type of density    : Electron Density
Multiplicity       :   1
Irrep              :   0
Energy             :  -657.2735236212321297 Eh
Relativity type    :
Basis              : AO
                                X                 Y                 Z
Electronic contribution:    -15.056531716      -3.060594837      -0.505824958
Nuclear contribution   :     15.724588321       3.524579905       0.685932828
                        -----------------------------------------
Total Dipole Moment    :      0.668056605       0.463985067       0.180107871
                        -----------------------------------------
Magnitude (a.u.)       :      0.833078997
Magnitude (Debye)      :      2.117518529

Rotational constants in cm-1:             0.198775             0.041386             0.040199
Rotational constants in MHz :          5959.137724          1240.720023          1205.140084

                             ****ORCA TERMINATED NORMALLY****
TOTAL RUN TIME: 0 days 0 hours 0 minutes 19 seconds 722 msec
