                         Program Version 6.0.0  -   RELEASE  -
|  1> ! r2scan-3c def2/J RI DEFGRID2 scfconv6 printgap
|  2> %output
|  3>     printlevel normal
|  4> end
|  5> %cpcm
|  6>     smd true
|  7>     smdsolvent "water"
|  8> end
|  9> * xyz 0 1
| 10> C 2.9557825404 0.1870519078 0.5873287644
| 11> C 1.8921885111 -0.7413009526 0.0111217247
| 12> C 0.9530271665 -0.0480883246 -0.9778474306
| 13> C 0.1189202408 1.0904608388 -0.3868559577
| 14> C -0.8653570526 0.6494103203 0.681356498
| 15> Cl -2.1033679764 -0.4729498977 0.0076642949
| 16> H 3.5030187294 0.6793321411 -0.2133342079
| 17> H 3.6632752958 -0.3810709634 1.186513087
| 18> H 2.512059851 0.9484992787 1.222943622
| 19> H 2.3873222987 -1.5595409357 -0.5167630022
| 20> H 1.3160050494 -1.1869778839 0.8235691887
| 21> H 0.2758996706 -0.7943399589 -1.399262058
| 22> H 1.5480007727 0.358030666 -1.7983727645
| 23> H -0.4313191345 1.5743315011 -1.1958329469
| 24> H 0.7756072778 1.8360961946 0.062916203
| 25> H -0.3783926517 0.1090096708 1.4897860095
| 26> H -1.4197480021 1.4968707668 1.0799426611
| 27> *
| 28>
| 29>                          ****END OF INPUT****

CARTESIAN COORDINATES (ANGSTROEM)
---------------------------------
  C      2.955783    0.187052    0.587329
  C      1.892189   -0.741301    0.011122
  C      0.953027   -0.048088   -0.977847
  C      0.118920    1.090461   -0.386856
  C     -0.865357    0.649410    0.681356
  Cl    -2.103368   -0.472950    0.007664
  H      3.503019    0.679332   -0.213334
  H      3.663275   -0.381071    1.186513
  H      2.512060    0.948499    1.222944
  H      2.387322   -1.559541   -0.516763
  H      1.316005   -1.186978    0.823569
  H      0.275900   -0.794340   -1.399262
  H      1.548001    0.358031   -1.798373
  H     -0.431319    1.574332   -1.195833
  H      0.775607    1.836096    0.062916
  H     -0.378393    0.109010    1.489786
  H     -1.419748    1.496871    1.079943

 Total Charge           Charge          ....    0
 Multiplicity           Mult            ....    1
 Number of Electrons    NEL             ....   58
 Basis Dimension        Dim             ....  177

ORBITAL ENERGIES
----------------

  NO   OCC          E(Eh)            E(eV)
   0   2.0000    -101.197651     -2753.7281
   1   2.0000     -10.079817      -274.2858
   2   2.0000     -10.026790      -272.8428
   3   2.0000     -10.016627      -272.5663
   4   2.0000     -10.016417      -272.5606
   5   2.0000     -10.007098      -272.3070
   6   2.0000      -9.354044      -254.5365
   7   2.0000      -7.099781      -193.1949
   8   2.0000      -7.090325      -192.9375
   9   2.0000      -7.090260      -192.9358
  10   2.0000      -0.817184       -22.2367
  11   2.0000      -0.755245       -20.5513
  12   2.0000      -0.697335       -18.9754
  13   2.0000      -0.634355       -17.2617
  14   2.0000      -0.576523       -15.6880
  15   2.0000      -0.514878       -14.0105
  16   2.0000      -0.443989       -12.0816
  17   2.0000      -0.434705       -11.8289
  18   2.0000      -0.393104       -10.6969
  19   2.0000      -0.387303       -10.5390
  20   2.0000      -0.384514       -10.4631
  21   2.0000      -0.342151        -9.3104
  22   2.0000      -0.333994        -9.0884
  23   2.0000      -0.329685        -8.9712
  24   2.0000      -0.291448        -7.9307
  25   2.0000      -0.286009        -7.7827
  26   2.0000      -0.284917        -7.7530
  27   2.0000      -0.262994        -7.1564
  28   2.0000      -0.260762        -7.0957
  29   0.0000       0.013812         0.3759
  30   0.0000       0.091007         2.4764
  31   0.0000       0.123368         3.3570
  32   0.0000       0.124602         3.3906
  33   0.0000       0.130196         3.5428

MULLIKEN ATOMIC CHARGES
-----------------------
   0 C :   -0.518500
   1 C :   -0.257430
   2 C :   -0.288729
   3 C :   -0.292782
   4 C :   -0.188694
   5 Cl:   -0.255309
   6 H :    0.155928
   7 H :    0.155802
   8 H :    0.159784
   9 H :    0.150345
  10 H :    0.151113
  11 H :    0.156549
  12 H :    0.157475
  13 H :    0.168470
  14 H :    0.171468
  15 H :    0.184168
  16 H :    0.190340
Sum of atomic charges:   -0.0000000

LOEWDIN ATOMIC CHARGES
----------------------
   0 C :   -0.434195
   1 C :   -0.320462
   2 C :   -0.323105
   3 C :   -0.327384
   4 C :   -0.311320
   5 Cl:   -0.039458
   6 H :    0.153342
   7 H :    0.153162
   8 H :    0.151665
   9 H :    0.155303
  10 H :    0.153069
  11 H :    0.159123
  12 H :    0.159792
  13 H :    0.165210
  14 H :    0.172008
  15 H :    0.166172
  16 H :    0.167078

  Mayer bond orders larger than 0.100000
B(  0-C ,  1-C ) :   0.8877 B(  0-C ,  6-H ) :   0.9781 B(  0-C ,  7-H ) :   0.9675
B(  0-C ,  8-H ) :   0.9776 B(  1-C ,  2-C ) :   0.9007 B(  1-C ,  9-H ) :   0.9635
B(  1-C , 10-H ) :   0.9822 B(  2-C ,  3-C ) :   0.8892 B(  2-C , 11-H ) :   0.9706
B(  2-C , 12-H ) :   0.9750 B(  3-C ,  4-C ) :   0.9151 B(  3-C , 13-H ) :   0.9615
B(  3-C , 14-H ) :   0.9625 B(  4-C ,  5-Cl) :   0.9376 B(  4-C , 15-H ) :   0.9637
B(  4-C , 16-H ) :   0.9477

Dispersion correction           -0.004559056
FINAL SINGLE POINT ENERGY      -657.269050498716

DIPOLE MOMENT
-------------

Method             : SCF
Type of density    : Electron Density
Multiplicity       :   1
Irrep              :   0
Energy             :  -657.2748992356872577 Eh
Relativity type    :
Basis              : AO
                                X                 Y                 Z
Electronic contribution:    -14.877131552      -2.847294512      -0.374838313
Nuclear contribution   :     15.724588321       3.524579905       0.685932828
                        -----------------------------------------
Total Dipole Moment    :      0.847456770       0.677285393       0.311094515
                        -----------------------------------------
Magnitude (a.u.)       :      1.128573558
Magnitude (Debye)      :      2.868606014

Rotational constants in cm-1:             0.198775             0.041386             0.040199
Rotational constants in MHz :          5959.137724          1240.720023          1205.140084

                             ****ORCA TERMINATED NORMALLY****
TOTAL RUN TIME: 0 days 0 hours 0 minutes 25 seconds 655 msec
