                         Program Version 6.0.0  -   RELEASE  -
|  1> ! pbe def2-sv(p) def2/J RI DEFGRID1 loosescf d4 GCP(DFT/SV(P)) printgap
|  2> %output
|  3>     printlevel normal
|  4> end
|  5> * xyz 0 1
|  6> C -3.5442066002 -1.5630943033 -0.9702463292
|  7> C -3.1741422617 -0.5967276514 0.1548109172
|  8> H -3.6576041421 -0.8926355254 1.0889204143
|  9> C -1.6745294895 -0.5430329927 0.3725777924
| 10> C -1.128404597 -0.9934146465 1.5904521825
| 11> C 0.2200181012 -0.9725180639 1.8040957022
| 12> C 1.1031875985 -0.492897154 0.8124133876
| 13> C 2.4939045353 -0.4559714032 1.0010308993
| 14> C 3.3325351471 0.0215791536 0.0175165892
| 15> C 2.7893568547 0.4821655011 -1.1988632384
| 16> C 1.437413772 0.4538675758 -1.4011756872
| 17> C 0.5570436608 -0.0298812042 -0.4140950161
| 18> C -0.8384421377 -0.066990419 -0.6039726477
| 19> O 4.6670860535 0.0123358469 0.3053571201
| 20> C 5.5820887613 0.4903436824 -0.6626363408
| 21> C -3.6103628904 0.8160732457 -0.1638351713
| 22> O -3.6375341975 1.3065467072 -1.2715491311
| 23> O -3.9276413433 1.49585034 0.9269881849
| 24> H -3.1678827192 -1.1919195785 -1.9196104822
| 25> H -3.1109266838 -2.5395423903 -0.7741711764
| 26> H -4.6244264137 -1.6602536912 -1.0432754932
| 27> H -1.7925094884 -1.361239294 2.3581795495
| 28> H 0.6317394318 -1.3227898527 2.7386734197
| 29> H 2.9233634657 -0.8044443711 1.9275392045
| 30> H 3.4347190096 0.8585027477 -1.9759699387
| 31> H 1.0252547126 0.8078974503 -2.3346705836
| 32> H -1.2446024147 0.2996204889 -1.5362739847
| 33> H 6.5624517922 0.3810392183 -0.2043492949
| 34> H 5.4013687026 1.5434131223 -0.8932444052
| 35> H 5.5376873404 -0.1048486525 -1.5783885845
| 36> H -4.1651179333 2.4252419725 0.7401947016
| 37> *
| 38>
| 39>                          ****END OF INPUT****

CARTESIAN COORDINATES (ANGSTROEM)
---------------------------------
  C     -3.544207   -1.563094   -0.970246
  C     -3.174142   -0.596728    0.154811
  H     -3.657604   -0.892636    1.088920
  C     -1.674529   -0.543033    0.372578
  C     -1.128405   -0.993415    1.590452
  C      0.220018   -0.972518    1.804096
  C      1.103188   -0.492897    0.812413
  C      2.493905   -0.455971    1.001031
  C      3.332535    0.021579    0.017517
  C      2.789357    0.482166   -1.198863
  C      1.437414    0.453868   -1.401176
  C      0.557044   -0.029881   -0.414095
  C     -0.838442   -0.066990   -0.603973
  O      4.667086    0.012336    0.305357
  C      5.582089    0.490344   -0.662636
  C     -3.610363    0.816073   -0.163835
  O     -3.637534    1.306547   -1.271549
  O     -3.927641    1.495850    0.926988
  H     -3.167883   -1.191920   -1.919610
  H     -3.110927   -2.539542   -0.774171
  H     -4.624426   -1.660254   -1.043275
  H     -1.792509   -1.361239    2.358180
  H      0.631739   -1.322790    2.738673
  H      2.923363   -0.804444    1.927539
  H      3.434719    0.858503   -1.975970
  H      1.025255    0.807897   -2.334671
  H     -1.244602    0.299620   -1.536274
  H      6.562452    0.381039   -0.204349
  H      5.401369    1.543413   -0.893244
  H      5.537687   -0.104849   -1.578389
  H     -4.165118    2.425242    0.740195

 Total Charge           Charge          ....    0
 Multiplicity           Mult            ....    1
 Number of Electrons    NEL             ....  122
 Basis Dimension        Dim             ....  266

ORBITAL ENERGIES
----------------

  NO   OCC          E(Eh)            E(eV)
   0   2.0000     -18.799625      -511.5638
   1   2.0000     -18.789195      -511.2800
   2   2.0000     -18.739218      -509.9200
   3   2.0000     -10.010455      -272.3983
   4   2.0000      -9.951331      -270.7895
   5   2.0000      -9.942924      -270.5607
   6   2.0000      -9.911005      -269.6921
   7   2.0000      -9.903372      -269.4845
   8   2.0000      -9.901346      -269.4293
   9   2.0000      -9.897969      -269.3374
  10   2.0000      -9.896111      -269.2869
  11   2.0000      -9.895118      -269.2599
  12   2.0000      -9.891726      -269.1675
  13   2.0000      -9.890110      -269.1236
  14   2.0000      -9.888585      -269.0821
  15   2.0000      -9.884666      -268.9754
  16   2.0000      -9.880672      -268.8668
  17   2.0000      -1.008267       -27.4363
  18   2.0000      -0.968893       -26.3649
  19   2.0000      -0.911655       -24.8074
  20   2.0000      -0.795137       -21.6368
  21   2.0000      -0.756547       -20.5867
  22   2.0000      -0.717672       -19.5288
  23   2.0000      -0.696987       -18.9660
  24   2.0000      -0.663861       -18.0646
  25   2.0000      -0.657384       -17.8883
  26   2.0000      -0.618234       -16.8230
  27   2.0000      -0.610558       -16.6141
  28   2.0000      -0.569120       -15.4865
  29   2.0000      -0.548457       -14.9243
  30   2.0000      -0.539289       -14.6748
  31   2.0000      -0.517462       -14.0809
  32   2.0000      -0.484177       -13.1751
  33   2.0000      -0.465168       -12.6579
  34   2.0000      -0.458753       -12.4833
  35   2.0000      -0.439379       -11.9561
  36   2.0000      -0.422830       -11.5058
  37   2.0000      -0.418720       -11.3940
  38   2.0000      -0.412206       -11.2167
  39   2.0000      -0.406031       -11.0487
  40   2.0000      -0.394799       -10.7430
  41   2.0000      -0.391376       -10.6499
  42   2.0000      -0.382213       -10.4006
  43   2.0000      -0.371208       -10.1011
  44   2.0000      -0.361648        -9.8409
  45   2.0000      -0.356688        -9.7060
  46   2.0000      -0.351854        -9.5744
  47   2.0000      -0.346324        -9.4240
  48   2.0000      -0.336993        -9.1701
  49   2.0000      -0.327167        -8.9027
  50   2.0000      -0.313781        -8.5384
  51   2.0000      -0.311202        -8.4682
  52   2.0000      -0.298040        -8.1101
  53   2.0000      -0.293618        -7.9897
  54   2.0000      -0.279675        -7.6104
  55   2.0000      -0.273327        -7.4376
  56   2.0000      -0.270658        -7.3650
  57   2.0000      -0.247409        -6.7324
  58   2.0000      -0.222249        -6.0477
  59   2.0000      -0.212605        -5.7853
  60   2.0000      -0.180251        -4.9049
  61   0.0000      -0.067726        -1.8429
  62   0.0000      -0.037779        -1.0280
  63   0.0000      -0.010861        -0.2955
  64   0.0000      -0.004419        -0.1203
  65   0.0000       0.027497         0.7482

MULLIKEN ATOMIC CHARGES
-----------------------
   0 C :   -0.218156
   1 C :   -0.114414
   2 H :    0.073081
   3 C :    0.096046
   4 C :   -0.096335
   5 C :   -0.127137
   6 C :    0.174813
   7 C :   -0.226372
   8 C :    0.299201
   9 C :   -0.172972
  10 C :   -0.135517
  11 C :    0.183967
  12 C :   -0.217805
  13 O :   -0.270022
  14 C :   -0.116076
  15 C :    0.109034
  16 O :   -0.193031
  17 O :   -0.282379
  18 H :    0.121414
  19 H :    0.107991
  20 H :    0.103642
  21 H :    0.037524
  22 H :    0.035197
  23 H :    0.029848
  24 H :    0.039733
  25 H :    0.042701
  26 H :    0.050112
  27 H :    0.127064
  28 H :    0.112216
  29 H :    0.112282
  30 H :    0.314351
Sum of atomic charges:    0.0000000

LOEWDIN ATOMIC CHARGES
----------------------
   0 C :   -0.317035
   1 C :   -0.154143
   2 H :    0.131282
   3 C :   -0.037799
   4 C :   -0.119425
   5 C :   -0.113450
   6 C :   -0.020558
   7 C :   -0.139746
   8 C :    0.029586
   9 C :   -0.163969
  10 C :   -0.102152
  11 C :   -0.034749
  12 C :   -0.105192
  13 O :   -0.092838
  14 C :   -0.202738
  15 C :    0.037701
  16 O :   -0.172346
  17 O :   -0.199510
  18 H :    0.128112
  19 H :    0.124910
  20 H :    0.122181
  21 H :    0.122972
  22 H :    0.124060
  23 H :    0.129689
  24 H :    0.127675
  25 H :    0.126689
  26 H :    0.129050
  27 H :    0.123428
  28 H :    0.109896
  29 H :    0.109906
  30 H :    0.298512

  Mayer bond orders larger than 0.100000
B(  0-C ,  1-C ) :   1.1047 B(  0-C , 18-H ) :   0.9364 B(  0-C , 19-H ) :   0.9491
B(  0-C , 20-H ) :   0.9493 B(  1-C ,  2-H ) :   0.8680 B(  1-C ,  3-C ) :   1.0034
B(  1-C , 15-C ) :   0.9321 B(  3-C ,  4-C ) :   1.2750 B(  3-C , 12-C ) :   1.4311
B(  4-C ,  5-C ) :   1.4519 B(  4-C , 21-H ) :   0.9595 B(  5-C ,  6-C ) :   1.2242
B(  5-C , 22-H ) :   0.9656 B(  6-C ,  7-C ) :   1.2273 B(  6-C , 11-C ) :   1.2377
B(  7-C ,  8-C ) :   1.3850 B(  7-C , 10-C ) :   0.1007 B(  7-C , 23-H ) :   0.9725
B(  8-C ,  9-C ) :   1.1931 B(  8-C , 13-O ) :   1.1352 B(  9-C , 10-C ) :   1.4250
B(  9-C , 24-H ) :   0.9602 B( 10-C , 11-C ) :   1.2327 B( 10-C , 25-H ) :   0.9645
B( 11-C , 12-C ) :   1.2131 B( 12-C , 26-H ) :   0.9530 B( 13-O , 14-C ) :   0.9876
B( 14-C , 27-H ) :   0.9589 B( 14-C , 28-H ) :   0.9421 B( 14-C , 29-H ) :   0.9421
B( 15-C , 16-O ) :   2.0700 B( 15-C , 17-O ) :   1.3067 B( 17-O , 30-H ) :   0.8201

Dispersion correction           -0.038888193
FINAL SINGLE POINT ENERGY      -765.993509783634

DIPOLE MOMENT
-------------

Method             : SCF
Type of density    : Electron Density
Multiplicity       :   1
Irrep              :   0
Energy             :  -766.0877188282970565 Eh
Relativity type    :
Basis              : AO
                                X                 Y                 Z
Electronic contribution:     -3.010268190       3.502018070       3.317365803
Nuclear contribution   :      3.478510393      -3.300032576      -3.196409112
                        -----------------------------------------
Total Dipole Moment    :      0.468242203       0.201985494       0.120956691
                        -----------------------------------------
Magnitude (a.u.)       :      0.524098675
Magnitude (Debye)      :      1.332152964

Rotational constants in cm-1:             0.041499             0.007189             0.006761
Rotational constants in MHz :          1244.095679           215.534744           202.696628

                             ****ORCA TERMINATED NORMALLY****
TOTAL RUN TIME: 0 days 0 hours 0 minutes 25 seconds 966 msec
