                         Program Version 6.0.0  -   RELEASE  -
|  1> ! r2scan-3c def2/J RI DEFGRID2 scfconv6 printgap
|  2> %output
|  3>     printlevel normal
|  4> end
|  5> * xyz 0 1
|  6> C -2.4003686163 -0.9020111731 0.9912726173
|  7> C -2.046426571 -0.7459608473 -0.4826723638
|  8> C -1.4344049234 0.6288119372 -0.7761986208
|  9> C -0.116449521 0.8107781541 -0.0684822028
| 10> O 0.1301024772 1.6984604661 0.7238740125
| 11> O 0.7666613586 -0.1140782294 -0.4142734428
| 12> C 2.0680755057 -0.0562529863 0.1915039894
| 13> C 2.8574729805 -1.2679341234 -0.2645698768
| 14> H -1.5147010311 -0.7859366797 1.6134923615
| 15> H -3.1234941614 -0.1475395276 1.2922760953
| 16> H -2.8265191721 -1.8840417078 1.1781823999
| 17> H -2.9470901648 -0.8603174327 -1.0865998459
| 18> H -1.3357836652 -1.5191165901 -0.7769003914
| 19> H -2.1032137284 1.4267040414 -0.453300942
| 20> H -1.2502114561 0.7223577887 -1.847304661
| 21> H 2.5483440656 0.879517111 -0.1134128967
| 22> H 1.9445208003 -0.0347285424 1.2795379029
| 23> H 2.9402973726 -1.2704498185 -1.3473247014
| 24> H 3.8503580796 -1.2341908342 0.1714419393
| 25> H 2.3583438832 -2.1793283821 0.0510544665
| 26> *
| 27>
| 28>                          ****END OF INPUT****

CARTESIAN COORDINATES (ANGSTROEM)
---------------------------------
  C     -2.400369   -0.902011    0.991273
  C     -2.046427   -0.745961   -0.482672
  C     -1.434405    0.628812   -0.776199
  C     -0.116450    0.810778   -0.068482
  O      0.130102    1.698460    0.723874
  O      0.766661   -0.114078   -0.414273
  C      2.068076   -0.056253    0.191504
  C      2.857473   -1.267934   -0.264570
  H     -1.514701   -0.785937    1.613492
  H     -3.123494   -0.147540    1.292276
  H     -2.826519   -1.884042    1.178182
  H     -2.947090   -0.860317   -1.086600
  H     -1.335784   -1.519117   -0.776900
  H     -2.103214    1.426704   -0.453301
  H     -1.250211    0.722358   -1.847305
  H      2.548344    0.879517   -0.113413
  H      1.944521   -0.034729    1.279538
  H      2.940297   -1.270450   -1.347325
  H      3.850358   -1.234191    0.171442
  H      2.358344   -2.179328    0.051054

 Total Charge           Charge          ....    0
 Multiplicity           Mult            ....    1
 Number of Electrons    NEL             ....   64
 Basis Dimension        Dim             ....  222

ORBITAL ENERGIES
----------------

  NO   OCC          E(Eh)            E(eV)
   0   2.0000     -18.996651      -516.9252
   1   2.0000     -18.925929      -515.0007
   2   2.0000     -10.149980      -276.1950
   3   2.0000     -10.092191      -274.6225
   4   2.0000     -10.040790      -273.2238
   5   2.0000     -10.036293      -273.1014
   6   2.0000     -10.032788      -273.0060
   7   2.0000     -10.020208      -272.6637
   8   2.0000      -1.072169       -29.1752
   9   2.0000      -0.972577       -26.4652
  10   2.0000      -0.776242       -21.1226
  11   2.0000      -0.741869       -20.1873
  12   2.0000      -0.677895       -18.4465
  13   2.0000      -0.615921       -16.7601
  14   2.0000      -0.570183       -15.5155
  15   2.0000      -0.534071       -14.5328
  16   2.0000      -0.469490       -12.7755
  17   2.0000      -0.456731       -12.4283
  18   2.0000      -0.438771       -11.9396
  19   2.0000      -0.424891       -11.5619
  20   2.0000      -0.409293       -11.1374
  21   2.0000      -0.379893       -10.3374
  22   2.0000      -0.378685       -10.3045
  23   2.0000      -0.370891       -10.0925
  24   2.0000      -0.355029        -9.6608
  25   2.0000      -0.334718        -9.1081
  26   2.0000      -0.327694        -8.9170
  27   2.0000      -0.313192        -8.5224
  28   2.0000      -0.310374        -8.4457
  29   2.0000      -0.308346        -8.3905
  30   2.0000      -0.271228        -7.3805
  31   2.0000      -0.230047        -6.2599
  32   0.0000      -0.014417        -0.3923
  33   0.0000       0.070422         1.9163
  34   0.0000       0.094501         2.5715
  35   0.0000       0.113956         3.1009
  36   0.0000       0.119321         3.2469

MULLIKEN ATOMIC CHARGES
-----------------------
   0 C :   -0.480637
   1 C :   -0.223333
   2 C :   -0.320572
   3 C :    0.344569
   4 O :   -0.416642
   5 O :   -0.157983
   6 C :   -0.146118
   7 C :   -0.443565
   8 H :    0.153498
   9 H :    0.149208
  10 H :    0.147396
  11 H :    0.144915
  12 H :    0.151882
  13 H :    0.170693
  14 H :    0.159847
  15 H :    0.154671
  16 H :    0.160077
  17 H :    0.152570
  18 H :    0.147635
  19 H :    0.151890
Sum of atomic charges:    0.0000000

LOEWDIN ATOMIC CHARGES
----------------------
   0 C :   -0.414755
   1 C :   -0.294264
   2 C :   -0.231196
   3 C :    0.349033
   4 O :   -0.424611
   5 O :   -0.603732
   6 C :    0.034364
   7 C :   -0.387089
   8 H :    0.155527
   9 H :    0.153296
  10 H :    0.151869
  11 H :    0.152983
  12 H :    0.164126
  13 H :    0.177748
  14 H :    0.179562
  15 H :    0.178294
  16 H :    0.180690
  17 H :    0.159506
  18 H :    0.159765
  19 H :    0.158884

  Mayer bond orders larger than 0.100000
B(  0-C ,  1-C ) :   0.9127 B(  0-C ,  8-H ) :   0.9709 B(  0-C ,  9-H ) :   0.9784
B(  0-C , 10-H ) :   0.9702 B(  1-C ,  2-C ) :   0.8864 B(  1-C , 11-H ) :   0.9643
B(  1-C , 12-H ) :   0.9713 B(  2-C ,  3-C ) :   0.9567 B(  2-C , 13-H ) :   1.0061
B(  2-C , 14-H ) :   0.9450 B(  3-C ,  4-O ) :   1.8280 B(  3-C ,  5-O ) :   1.0544
B(  5-O ,  6-C ) :   0.8088 B(  6-C ,  7-C ) :   0.9399 B(  6-C , 15-H ) :   0.9522
B(  6-C , 16-H ) :   0.9558 B(  7-C , 17-H ) :   0.9712 B(  7-C , 18-H ) :   0.9682
B(  7-C , 19-H ) :   0.9732

Dispersion correction           -0.005117895
FINAL SINGLE POINT ENERGY      -386.236052491027

DIPOLE MOMENT
-------------

Method             : SCF
Type of density    : Electron Density
Multiplicity       :   1
Irrep              :   0
Energy             :  -386.2425695163901196 Eh
Relativity type    :
Basis              : AO
                                X                 Y                 Z
Electronic contribution:      1.506901904       5.645282925      -0.423997848
Nuclear contribution   :     -1.355627803      -6.437726781      -0.031864729
                        -----------------------------------------
Total Dipole Moment    :      0.151274100      -0.792443856      -0.455862576
                        -----------------------------------------
Magnitude (a.u.)       :      0.926640063
Magnitude (Debye)      :      2.355331860

Rotational constants in cm-1:             0.104729             0.039332             0.034053
Rotational constants in MHz :          3139.701832          1179.133935          1020.892019

                             ****ORCA TERMINATED NORMALLY****
TOTAL RUN TIME: 0 days 0 hours 0 minutes 31 seconds 124 msec
