                         Program Version 6.0.0  -   RELEASE  -
|  1> ! r2scan-3c def2/J RI DEFGRID2 scfconv6 printgap
|  2> %output
|  3>     printlevel normal
|  4> end
|  5> %cpcm
|  6>     smd true
|  7>     smdsolvent "water"
|  8> end
|  9> * xyz 0 1
| 10> C -2.4003686163 -0.9020111731 0.9912726173
| 11> C -2.046426571 -0.7459608473 -0.4826723638
| 12> C -1.4344049234 0.6288119372 -0.7761986208
| 13> C -0.116449521 0.8107781541 -0.0684822028
| 14> O 0.1301024772 1.6984604661 0.7238740125
| 15> O 0.7666613586 -0.1140782294 -0.4142734428
| 16> C 2.0680755057 -0.0562529863 0.1915039894
| 17> C 2.8574729805 -1.2679341234 -0.2645698768
| 18> H -1.5147010311 -0.7859366797 1.6134923615
| 19> H -3.1234941614 -0.1475395276 1.2922760953
| 20> H -2.8265191721 -1.8840417078 1.1781823999
| 21> H -2.9470901648 -0.8603174327 -1.0865998459
| 22> H -1.3357836652 -1.5191165901 -0.7769003914
| 23> H -2.1032137284 1.4267040414 -0.453300942
| 24> H -1.2502114561 0.7223577887 -1.847304661
| 25> H 2.5483440656 0.879517111 -0.1134128967
| 26> H 1.9445208003 -0.0347285424 1.2795379029
| 27> H 2.9402973726 -1.2704498185 -1.3473247014
| 28> H 3.8503580796 -1.2341908342 0.1714419393
| 29> H 2.3583438832 -2.1793283821 0.0510544665
| 30> *
| 31>
| 32>                          ****END OF INPUT****

CARTESIAN COORDINATES (ANGSTROEM)
---------------------------------
  C     -2.400369   -0.902011    0.991273
  C     -2.046427   -0.745961   -0.482672
  C     -1.434405    0.628812   -0.776199
  C     -0.116450    0.810778   -0.068482
  O      0.130102    1.698460    0.723874
  O      0.766661   -0.114078   -0.414273
  C      2.068076   -0.056253    0.191504
  C      2.857473   -1.267934   -0.264570
  H     -1.514701   -0.785937    1.613492
  H     -3.123494   -0.147540    1.292276
  H     -2.826519   -1.884042    1.178182
  H     -2.947090   -0.860317   -1.086600
  H     -1.335784   -1.519117   -0.776900
  H     -2.103214    1.426704   -0.453301
  H     -1.250211    0.722358   -1.847305
  H      2.548344    0.879517   -0.113413
  H      1.944521   -0.034729    1.279538
  H      2.940297   -1.270450   -1.347325
  H      3.850358   -1.234191    0.171442
  H      2.358344   -2.179328    0.051054

 Total Charge           Charge          ....    0
 Multiplicity           Mult            ....    1
 Number of Electrons    NEL             ....   64
 Basis Dimension        Dim             ....  222

ORBITAL ENERGIES
----------------

  NO   OCC          E(Eh)            E(eV)
   0   2.0000     -19.002328      -517.0796
   1   2.0000     -18.943330      -515.4742
   2   2.0000     -10.161733      -276.5148
   3   2.0000     -10.084308      -274.4080
   4   2.0000     -10.035594      -273.0824
   5   2.0000     -10.028256      -272.8827
   6   2.0000     -10.018853      -272.6268
   7   2.0000     -10.011753      -272.4337
   8   2.0000      -1.079823       -29.3835
   9   2.0000      -0.987631       -26.8748
  10   2.0000      -0.771404       -20.9910
  11   2.0000      -0.733548       -19.9609
  12   2.0000      -0.671942       -18.2845
  13   2.0000      -0.609065       -16.5735
  14   2.0000      -0.564020       -15.3478
  15   2.0000      -0.532337       -14.4856
  16   2.0000      -0.468502       -12.7486
  17   2.0000      -0.454486       -12.3672
  18   2.0000      -0.452748       -12.3199
  19   2.0000      -0.420408       -11.4399
  20   2.0000      -0.404189       -10.9985
  21   2.0000      -0.377492       -10.2721
  22   2.0000      -0.371918       -10.1204
  23   2.0000      -0.363644        -9.8953
  24   2.0000      -0.348689        -9.4883
  25   2.0000      -0.329228        -8.9588
  26   2.0000      -0.322211        -8.7678
  27   2.0000      -0.312400        -8.5008
  28   2.0000      -0.306369        -8.3367
  29   2.0000      -0.301684        -8.2093
  30   2.0000      -0.276854        -7.5336
  31   2.0000      -0.247297        -6.7293
  32   0.0000      -0.023535        -0.6404
  33   0.0000       0.075153         2.0450
  34   0.0000       0.103661         2.8208
  35   0.0000       0.122185         3.3248
  36   0.0000       0.125119         3.4047

MULLIKEN ATOMIC CHARGES
-----------------------
   0 C :   -0.526591
   1 C :   -0.218663
   2 C :   -0.340215
   3 C :    0.389248
   4 O :   -0.507275
   5 O :   -0.170667
   6 C :   -0.150127
   7 C :   -0.492245
   8 H :    0.161106
   9 H :    0.162741
  10 H :    0.161645
  11 H :    0.162517
  12 H :    0.155175
  13 H :    0.179931
  14 H :    0.190179
  15 H :    0.171739
  16 H :    0.172003
  17 H :    0.164946
  18 H :    0.169048
  19 H :    0.165504
Sum of atomic charges:    0.0000000

LOEWDIN ATOMIC CHARGES
----------------------
   0 C :   -0.422801
   1 C :   -0.290789
   2 C :   -0.229172
   3 C :    0.358938
   4 O :   -0.489102
   5 O :   -0.602775
   6 C :    0.036605
   7 C :   -0.389888
   8 H :    0.155854
   9 H :    0.156063
  10 H :    0.156485
  11 H :    0.160056
  12 H :    0.164917
  13 H :    0.181495
  14 H :    0.191530
  15 H :    0.183850
  16 H :    0.185051
  17 H :    0.162796
  18 H :    0.168360
  19 H :    0.162526

  Mayer bond orders larger than 0.100000
B(  0-C ,  1-C ) :   0.8989 B(  0-C ,  8-H ) :   0.9691 B(  0-C ,  9-H ) :   0.9773
B(  0-C , 10-H ) :   0.9661 B(  1-C ,  2-C ) :   0.8772 B(  1-C , 11-H ) :   0.9611
B(  1-C , 12-H ) :   0.9709 B(  2-C ,  3-C ) :   0.9549 B(  2-C , 13-H ) :   1.0021
B(  2-C , 14-H ) :   0.9348 B(  3-C ,  4-O ) :   1.7530 B(  3-C ,  5-O ) :   1.0869
B(  5-O ,  6-C ) :   0.7943 B(  6-C ,  7-C ) :   0.9431 B(  6-C , 15-H ) :   0.9441
B(  6-C , 16-H ) :   0.9485 B(  7-C , 17-H ) :   0.9690 B(  7-C , 18-H ) :   0.9618
B(  7-C , 19-H ) :   0.9712

Dispersion correction           -0.005117895
FINAL SINGLE POINT ENERGY      -386.241947626118

DIPOLE MOMENT
-------------

Method             : SCF
Type of density    : Electron Density
Multiplicity       :   1
Irrep              :   0
Energy             :  -386.2484646514810152 Eh
Relativity type    :
Basis              : AO
                                X                 Y                 Z
Electronic contribution:      1.519482076       5.356237775      -0.641050166
Nuclear contribution   :     -1.355627803      -6.437726781      -0.031864729
                        -----------------------------------------
Total Dipole Moment    :      0.163854273      -1.081489006      -0.672914895
                        -----------------------------------------
Magnitude (a.u.)       :      1.284243415
Magnitude (Debye)      :      3.264287343

Rotational constants in cm-1:             0.104729             0.039332             0.034053
Rotational constants in MHz :          3139.701832          1179.133935          1020.892019

                             ****ORCA TERMINATED NORMALLY****
TOTAL RUN TIME: 0 days 0 hours 0 minutes 38 seconds 481 msec
