                         Program Version 6.0.0  -   RELEASE  -
|  1> ! pbe def2-sv(p) def2/J RI DEFGRID1 loosescf d4 GCP(DFT/SV(P)) printgap
|  2> %output
|  3>     printlevel normal
|  4> end
|  5> * xyz 0 1
|  6> C -3.3154401911 -1.0876255433 0.1050982681
|  7> C -1.8699851438 -0.7226917901 0.4176431428
|  8> C -1.3558104793 0.3697500843 -0.5322299503
|  9> C 0.064012463 0.709662893 -0.1688328806
| 10> O 0.390777111 1.5938462357 0.5960272715
| 11> O 0.9261037708 -0.1002011005 -0.769909892
| 12> C 2.3246274737 0.0404614502 -0.4688342934
| 13> C 2.7034764961 -0.7669372741 0.7632854723
| 14> H -3.6613523356 -1.8609949579 0.7853750677
| 15> H -3.9597334087 -0.2189951874 0.2136154222
| 16> H -3.4026144091 -1.457604659 -0.9131178763
| 17> H -1.2363881471 -1.6058556178 0.3179101703
| 18> H -1.792347786 -0.3639318832 1.44620898
| 19> H -1.9678157816 1.2654201159 -0.4300800835
| 20> H -1.3849807747 0.0064248416 -1.5585893276
| 21> H 2.8359932072 -0.3280742957 -1.3584933824
| 22> H 2.5428156194 1.1017741826 -0.3159680073
| 23> H 3.7728159096 -0.6886771154 0.9296939908
| 24> H 2.1811536261 -0.3810553299 1.6359918118
| 25> H 2.4372413727 -1.8111551998 0.6237634492
| 26> *
| 27>
| 28>                          ****END OF INPUT****

CARTESIAN COORDINATES (ANGSTROEM)
---------------------------------
  C     -3.315440   -1.087626    0.105098
  C     -1.869985   -0.722692    0.417643
  C     -1.355810    0.369750   -0.532230
  C      0.064012    0.709663   -0.168833
  O      0.390777    1.593846    0.596027
  O      0.926104   -0.100201   -0.769910
  C      2.324627    0.040461   -0.468834
  C      2.703476   -0.766937    0.763285
  H     -3.661352   -1.860995    0.785375
  H     -3.959733   -0.218995    0.213615
  H     -3.402614   -1.457605   -0.913118
  H     -1.236388   -1.605856    0.317910
  H     -1.792348   -0.363932    1.446209
  H     -1.967816    1.265420   -0.430080
  H     -1.384981    0.006425   -1.558589
  H      2.835993   -0.328074   -1.358493
  H      2.542816    1.101774   -0.315968
  H      3.772816   -0.688677    0.929694
  H      2.181154   -0.381055    1.635992
  H      2.437241   -1.811155    0.623763

 Total Charge           Charge          ....    0
 Multiplicity           Mult            ....    1
 Number of Electrons    NEL             ....   64
 Basis Dimension        Dim             ....  136

ORBITAL ENERGIES
----------------

  NO   OCC          E(Eh)            E(eV)
   0   2.0000     -18.796034      -511.4661
   1   2.0000     -18.729080      -509.6442
   2   2.0000     -10.002875      -272.1921
   3   2.0000      -9.945396      -270.6280
   4   2.0000      -9.896243      -269.2905
   5   2.0000      -9.895588      -269.2726
   6   2.0000      -9.886490      -269.0251
   7   2.0000      -9.880851      -268.8716
   8   2.0000      -1.002561       -27.2811
   9   2.0000      -0.906190       -24.6587
  10   2.0000      -0.729631       -19.8543
  11   2.0000      -0.696541       -18.9538
  12   2.0000      -0.639552       -17.4031
  13   2.0000      -0.587557       -15.9882
  14   2.0000      -0.535954       -14.5840
  15   2.0000      -0.494402       -13.4534
  16   2.0000      -0.451602       -12.2887
  17   2.0000      -0.433709       -11.8018
  18   2.0000      -0.420949       -11.4546
  19   2.0000      -0.403312       -10.9747
  20   2.0000      -0.388179       -10.5629
  21   2.0000      -0.375831       -10.2269
  22   2.0000      -0.355982        -9.6868
  23   2.0000      -0.346009        -9.4154
  24   2.0000      -0.344344        -9.3701
  25   2.0000      -0.331280        -9.0146
  26   2.0000      -0.313841        -8.5400
  27   2.0000      -0.300111        -8.1664
  28   2.0000      -0.298198        -8.1144
  29   2.0000      -0.288422        -7.8484
  30   2.0000      -0.253542        -6.8992
  31   2.0000      -0.213774        -5.8171
  32   0.0000      -0.017459        -0.4751
  33   0.0000       0.037999         1.0340
  34   0.0000       0.052546         1.4298
  35   0.0000       0.075262         2.0480
  36   0.0000       0.076773         2.0891

MULLIKEN ATOMIC CHARGES
-----------------------
   0 C :   -0.241799
   1 C :   -0.243208
   2 C :   -0.113736
   3 C :    0.113153
   4 O :   -0.213596
   5 O :   -0.243078
   6 C :   -0.011254
   7 C :   -0.304223
   8 H :    0.106998
   9 H :    0.101431
  10 H :    0.099203
  11 H :    0.097675
  12 H :    0.103106
  13 H :    0.098086
  14 H :    0.093728
  15 H :    0.100537
  16 H :    0.107492
  17 H :    0.111778
  18 H :    0.125501
  19 H :    0.112204
Sum of atomic charges:    0.0000000

LOEWDIN ATOMIC CHARGES
----------------------
   0 C :   -0.338833
   1 C :   -0.225528
   2 C :   -0.241465
   3 C :    0.037391
   4 O :   -0.174787
   5 O :   -0.069275
   6 C :   -0.113078
   7 C :   -0.356419
   8 H :    0.121815
   9 H :    0.119388
  10 H :    0.118390
  11 H :    0.118207
  12 H :    0.121845
  13 H :    0.133421
  14 H :    0.129693
  15 H :    0.116434
  16 H :    0.119367
  17 H :    0.129957
  18 H :    0.130071
  19 H :    0.123408

  Mayer bond orders larger than 0.100000
B(  0-C ,  1-C ) :   1.1578 B(  0-C ,  8-H ) :   0.9516 B(  0-C ,  9-H ) :   0.9533
B(  0-C , 10-H ) :   0.9534 B(  1-C ,  2-C ) :   1.1291 B(  1-C , 11-H ) :   0.9261
B(  1-C , 12-H ) :   0.9267 B(  2-C ,  3-C ) :   1.0261 B(  2-C , 13-H ) :   0.9032
B(  2-C , 14-H ) :   0.8992 B(  3-C ,  4-O ) :   2.0436 B(  3-C ,  5-O ) :   1.2046
B(  5-O ,  6-C ) :   0.9228 B(  6-C ,  7-C ) :   1.1735 B(  6-C , 15-H ) :   0.9373
B(  6-C , 16-H ) :   0.9125 B(  7-C , 17-H ) :   0.9445 B(  7-C , 18-H ) :   0.9461
B(  7-C , 19-H ) :   0.9492

Dispersion correction           -0.014847764
FINAL SINGLE POINT ENERGY      -385.457753331331

DIPOLE MOMENT
-------------

Method             : SCF
Type of density    : Electron Density
Multiplicity       :   1
Irrep              :   0
Energy             :  -385.5326166035686128 Eh
Relativity type    :
Basis              : AO
                                X                 Y                 Z
Electronic contribution:      3.489299402       5.256915172      -1.598521478
Nuclear contribution   :     -3.390908764      -5.928385455       1.288630050
                        -----------------------------------------
Total Dipole Moment    :      0.098390638      -0.671470283      -0.309891428
                        -----------------------------------------
Magnitude (a.u.)       :      0.746046752
Magnitude (Debye)      :      1.896300141

Rotational constants in cm-1:             0.130905             0.033403             0.030756
Rotational constants in MHz :          3924.447764          1001.394939           922.055498

                             ****ORCA TERMINATED NORMALLY****
TOTAL RUN TIME: 0 days 0 hours 0 minutes 10 seconds 735 msec
