                         Program Version 6.0.0  -   RELEASE  -
|  1> ! r2scan-3c def2/J RI DEFGRID2 scfconv6 printgap
|  2> %output
|  3>     printlevel normal
|  4> end
|  5> * xyz 0 1
|  6> C -2.2224566063 -1.5001393098 -0.0035003012
|  7> C -2.4639660995 0.0031593564 0.060084807
|  8> C -1.3521983286 0.782543834 -0.647144538
|  9> C -0.0400122783 0.646685024 0.0826470973
| 10> O 0.1052962844 0.7703301711 1.2808117303
| 11> O 0.956986101 0.3931331431 -0.7570645909
| 12> C 2.283195332 0.236276144 -0.2252711364
| 13> C 2.5515584593 -1.2135807155 0.1483661767
| 14> H -1.2913480726 -1.7550552752 0.4991118451
| 15> H -3.0318127299 -2.0352131786 0.4859423132
| 16> H -2.1596609093 -1.8346635428 -1.0362692631
| 17> H -2.5048068068 0.3232746193 1.102822543
| 18> H -3.4173558516 0.242167617 -0.4115600232
| 19> H -1.6034259488 1.8449771035 -0.6597786705
| 20> H -1.216679857 0.4381944232 -1.6717707278
| 21> H 2.9441199061 0.5681252728 -1.026609263
| 22> H 2.3880124837 0.8863346626 0.6487409377
| 23> H 3.5798255365 -1.3158220181 0.4794656911
| 24> H 1.8893941741 -1.5193786215 0.9555671215
| 25> H 2.3842065109 -1.8579736399 -0.7104310836
| 26> *
| 27>
| 28>                          ****END OF INPUT****

CARTESIAN COORDINATES (ANGSTROEM)
---------------------------------
  C     -2.222457   -1.500139   -0.003500
  C     -2.463966    0.003159    0.060085
  C     -1.352198    0.782544   -0.647145
  C     -0.040012    0.646685    0.082647
  O      0.105296    0.770330    1.280812
  O      0.956986    0.393133   -0.757065
  C      2.283195    0.236276   -0.225271
  C      2.551558   -1.213581    0.148366
  H     -1.291348   -1.755055    0.499112
  H     -3.031813   -2.035213    0.485942
  H     -2.159661   -1.834664   -1.036269
  H     -2.504807    0.323275    1.102823
  H     -3.417356    0.242168   -0.411560
  H     -1.603426    1.844977   -0.659779
  H     -1.216680    0.438194   -1.671771
  H      2.944120    0.568125   -1.026609
  H      2.388012    0.886335    0.648741
  H      3.579826   -1.315822    0.479466
  H      1.889394   -1.519379    0.955567
  H      2.384207   -1.857974   -0.710431

 Total Charge           Charge          ....    0
 Multiplicity           Mult            ....    1
 Number of Electrons    NEL             ....   64
 Basis Dimension        Dim             ....  222

ORBITAL ENERGIES
----------------

  NO   OCC          E(Eh)            E(eV)
   0   2.0000     -18.996488      -516.9207
   1   2.0000     -18.927801      -515.0517
   2   2.0000     -10.151627      -276.2398
   3   2.0000     -10.090565      -274.5782
   4   2.0000     -10.040372      -273.2124
   5   2.0000     -10.032425      -272.9962
   6   2.0000     -10.029293      -272.9109
   7   2.0000     -10.018618      -272.6205
   8   2.0000      -1.070870       -29.1399
   9   2.0000      -0.975545       -26.5459
  10   2.0000      -0.772194       -21.0125
  11   2.0000      -0.739669       -20.1274
  12   2.0000      -0.677401       -18.4330
  13   2.0000      -0.624581       -16.9957
  14   2.0000      -0.565293       -15.3824
  15   2.0000      -0.518400       -14.1064
  16   2.0000      -0.473500       -12.8846
  17   2.0000      -0.454050       -12.3553
  18   2.0000      -0.445763       -12.1298
  19   2.0000      -0.418648       -11.3920
  20   2.0000      -0.408062       -11.1039
  21   2.0000      -0.390166       -10.6170
  22   2.0000      -0.374784       -10.1984
  23   2.0000      -0.369089       -10.0434
  24   2.0000      -0.350225        -9.5301
  25   2.0000      -0.343878        -9.3574
  26   2.0000      -0.316665        -8.6169
  27   2.0000      -0.309767        -8.4292
  28   2.0000      -0.307970        -8.3803
  29   2.0000      -0.302780        -8.2391
  30   2.0000      -0.271245        -7.3810
  31   2.0000      -0.236541        -6.4366
  32   0.0000      -0.014986        -0.4078
  33   0.0000       0.074377         2.0239
  34   0.0000       0.088872         2.4183
  35   0.0000       0.110258         3.0003
  36   0.0000       0.119555         3.2533

MULLIKEN ATOMIC CHARGES
-----------------------
   0 C :   -0.495549
   1 C :   -0.207909
   2 C :   -0.305391
   3 C :    0.347977
   4 O :   -0.429148
   5 O :   -0.172521
   6 C :   -0.142691
   7 C :   -0.464724
   8 H :    0.155521
   9 H :    0.148205
  10 H :    0.145224
  11 H :    0.159555
  12 H :    0.142774
  13 H :    0.167434
  14 H :    0.165807
  15 H :    0.147457
  16 H :    0.170093
  17 H :    0.147232
  18 H :    0.168247
  19 H :    0.152405
Sum of atomic charges:    0.0000000

LOEWDIN ATOMIC CHARGES
----------------------
   0 C :   -0.416907
   1 C :   -0.295251
   2 C :   -0.232064
   3 C :    0.356818
   4 O :   -0.439986
   5 O :   -0.595632
   6 C :    0.026771
   7 C :   -0.390446
   8 H :    0.155967
   9 H :    0.152902
  10 H :    0.150016
  11 H :    0.168231
  12 H :    0.152635
  13 H :    0.182679
  14 H :    0.177753
  15 H :    0.177418
  16 H :    0.189039
  17 H :    0.159093
  18 H :    0.163596
  19 H :    0.157368

  Mayer bond orders larger than 0.100000
B(  0-C ,  1-C ) :   0.9078 B(  0-C ,  8-H ) :   0.9733 B(  0-C ,  9-H ) :   0.9687
B(  0-C , 10-H ) :   0.9823 B(  1-C ,  2-C ) :   0.8933 B(  1-C , 11-H ) :   0.9642
B(  1-C , 12-H ) :   0.9648 B(  2-C ,  3-C ) :   0.9452 B(  2-C , 13-H ) :   0.9311
B(  2-C , 14-H ) :   1.0028 B(  3-C ,  4-O ) :   1.8361 B(  3-C ,  5-O ) :   1.0544
B(  5-O ,  6-C ) :   0.8201 B(  6-C ,  7-C ) :   0.9375 B(  6-C , 15-H ) :   0.9616
B(  6-C , 16-H ) :   0.9676 B(  7-C , 17-H ) :   0.9656 B(  7-C , 18-H ) :   0.9719
B(  7-C , 19-H ) :   0.9732

Dispersion correction           -0.005198441
FINAL SINGLE POINT ENERGY      -386.236847014803

DIPOLE MOMENT
-------------

Method             : SCF
Type of density    : Electron Density
Multiplicity       :   1
Irrep              :   0
Energy             :  -386.2433972701472840 Eh
Relativity type    :
Basis              : AO
                                X                 Y                 Z
Electronic contribution:      2.082947222       5.413917037       0.593445283
Nuclear contribution   :     -1.897668895      -5.625851229      -1.253850889
                        -----------------------------------------
Total Dipole Moment    :      0.185278327      -0.211934192      -0.660405605
                        -----------------------------------------
Magnitude (a.u.)       :      0.717899522
Magnitude (Debye)      :      1.824755570

Rotational constants in cm-1:             0.117344             0.038730             0.035319
Rotational constants in MHz :          3517.872673          1161.093252          1058.839505

                             ****ORCA TERMINATED NORMALLY****
TOTAL RUN TIME: 0 days 0 hours 0 minutes 34 seconds 967 msec
