                         Program Version 6.0.0  -   RELEASE  -
|  1> ! r2scan-3c def2/J RI DEFGRID2 scfconv6 printgap
|  2> %output
|  3>     printlevel normal
|  4> end
|  5> %cpcm
|  6>     smd true
|  7>     smdsolvent "water"
|  8> end
|  9> * xyz 0 1
| 10> C -2.2224566063 -1.5001393098 -0.0035003012
| 11> C -2.4639660995 0.0031593564 0.060084807
| 12> C -1.3521983286 0.782543834 -0.647144538
| 13> C -0.0400122783 0.646685024 0.0826470973
| 14> O 0.1052962844 0.7703301711 1.2808117303
| 15> O 0.956986101 0.3931331431 -0.7570645909
| 16> C 2.283195332 0.236276144 -0.2252711364
| 17> C 2.5515584593 -1.2135807155 0.1483661767
| 18> H -1.2913480726 -1.7550552752 0.4991118451
| 19> H -3.0318127299 -2.0352131786 0.4859423132
| 20> H -2.1596609093 -1.8346635428 -1.0362692631
| 21> H -2.5048068068 0.3232746193 1.102822543
| 22> H -3.4173558516 0.242167617 -0.4115600232
| 23> H -1.6034259488 1.8449771035 -0.6597786705
| 24> H -1.216679857 0.4381944232 -1.6717707278
| 25> H 2.9441199061 0.5681252728 -1.026609263
| 26> H 2.3880124837 0.8863346626 0.6487409377
| 27> H 3.5798255365 -1.3158220181 0.4794656911
| 28> H 1.8893941741 -1.5193786215 0.9555671215
| 29> H 2.3842065109 -1.8579736399 -0.7104310836
| 30> *
| 31>
| 32>                          ****END OF INPUT****

CARTESIAN COORDINATES (ANGSTROEM)
---------------------------------
  C     -2.222457   -1.500139   -0.003500
  C     -2.463966    0.003159    0.060085
  C     -1.352198    0.782544   -0.647145
  C     -0.040012    0.646685    0.082647
  O      0.105296    0.770330    1.280812
  O      0.956986    0.393133   -0.757065
  C      2.283195    0.236276   -0.225271
  C      2.551558   -1.213581    0.148366
  H     -1.291348   -1.755055    0.499112
  H     -3.031813   -2.035213    0.485942
  H     -2.159661   -1.834664   -1.036269
  H     -2.504807    0.323275    1.102823
  H     -3.417356    0.242168   -0.411560
  H     -1.603426    1.844977   -0.659779
  H     -1.216680    0.438194   -1.671771
  H      2.944120    0.568125   -1.026609
  H      2.388012    0.886335    0.648741
  H      3.579826   -1.315822    0.479466
  H      1.889394   -1.519379    0.955567
  H      2.384207   -1.857974   -0.710431

 Total Charge           Charge          ....    0
 Multiplicity           Mult            ....    1
 Number of Electrons    NEL             ....   64
 Basis Dimension        Dim             ....  222

ORBITAL ENERGIES
----------------

  NO   OCC          E(Eh)            E(eV)
   0   2.0000     -19.002478      -517.0837
   1   2.0000     -18.943358      -515.4750
   2   2.0000     -10.162276      -276.5296
   3   2.0000     -10.082900      -274.3696
   4   2.0000     -10.035012      -273.0665
   5   2.0000     -10.026973      -272.8478
   6   2.0000     -10.018474      -272.6165
   7   2.0000     -10.011185      -272.4182
   8   2.0000      -1.078430       -29.3456
   9   2.0000      -0.989013       -26.9124
  10   2.0000      -0.768419       -20.9097
  11   2.0000      -0.733215       -19.9518
  12   2.0000      -0.672129       -18.2895
  13   2.0000      -0.619484       -16.8570
  14   2.0000      -0.559524       -15.2254
  15   2.0000      -0.517360       -14.0781
  16   2.0000      -0.474474       -12.9111
  17   2.0000      -0.457170       -12.4402
  18   2.0000      -0.448868       -12.2143
  19   2.0000      -0.421518       -11.4701
  20   2.0000      -0.402646       -10.9566
  21   2.0000      -0.385669       -10.4946
  22   2.0000      -0.368187       -10.0189
  23   2.0000      -0.365511        -9.9460
  24   2.0000      -0.347594        -9.4585
  25   2.0000      -0.340957        -9.2779
  26   2.0000      -0.310422        -8.4470
  27   2.0000      -0.305155        -8.3037
  28   2.0000      -0.302740        -8.2380
  29   2.0000      -0.300542        -8.1782
  30   2.0000      -0.278673        -7.5831
  31   2.0000      -0.252398        -6.8681
  32   0.0000      -0.022929        -0.6239
  33   0.0000       0.076566         2.0835
  34   0.0000       0.095576         2.6008
  35   0.0000       0.119960         3.2643
  36   0.0000       0.127680         3.4743

MULLIKEN ATOMIC CHARGES
-----------------------
   0 C :   -0.528231
   1 C :   -0.220206
   2 C :   -0.319265
   3 C :    0.386993
   4 O :   -0.511104
   5 O :   -0.194151
   6 C :   -0.147602
   7 C :   -0.490572
   8 H :    0.160483
   9 H :    0.160804
  10 H :    0.161335
  11 H :    0.152224
  12 H :    0.161897
  13 H :    0.197646
  14 H :    0.180992
  15 H :    0.173243
  16 H :    0.172391
  17 H :    0.170392
  18 H :    0.167025
  19 H :    0.165705
Sum of atomic charges:    0.0000000

LOEWDIN ATOMIC CHARGES
----------------------
   0 C :   -0.423816
   1 C :   -0.294965
   2 C :   -0.229174
   3 C :    0.366588
   4 O :   -0.498265
   5 O :   -0.598962
   6 C :    0.031514
   7 C :   -0.393334
   8 H :    0.156075
   9 H :    0.156024
  10 H :    0.155594
  11 H :    0.163690
  12 H :    0.160152
  13 H :    0.193493
  14 H :    0.185299
  15 H :    0.188686
  16 H :    0.189845
  17 H :    0.167663
  18 H :    0.161892
  19 H :    0.162001

  Mayer bond orders larger than 0.100000
B(  0-C ,  1-C ) :   0.9044 B(  0-C ,  8-H ) :   0.9707 B(  0-C ,  9-H ) :   0.9661
B(  0-C , 10-H ) :   0.9782 B(  1-C ,  2-C ) :   0.8786 B(  1-C , 11-H ) :   0.9697
B(  1-C , 12-H ) :   0.9606 B(  2-C ,  3-C ) :   0.9487 B(  2-C , 13-H ) :   0.9232
B(  2-C , 14-H ) :   0.9920 B(  3-C ,  4-O ) :   1.7694 B(  3-C ,  5-O ) :   1.0767
B(  5-O ,  6-C ) :   0.8027 B(  6-C ,  7-C ) :   0.9367 B(  6-C , 15-H ) :   0.9523
B(  6-C , 16-H ) :   0.9637 B(  7-C , 17-H ) :   0.9605 B(  7-C , 18-H ) :   0.9687
B(  7-C , 19-H ) :   0.9696

Dispersion correction           -0.005198441
FINAL SINGLE POINT ENERGY      -386.241664162662

DIPOLE MOMENT
-------------

Method             : SCF
Type of density    : Electron Density
Multiplicity       :   1
Irrep              :   0
Energy             :  -386.2482144180068531 Eh
Relativity type    :
Basis              : AO
                                X                 Y                 Z
Electronic contribution:      2.134713160       5.367076618       0.234711880
Nuclear contribution   :     -1.897668895      -5.625851229      -1.253850889
                        -----------------------------------------
Total Dipole Moment    :      0.237044266      -0.258774610      -1.019139008
                        -----------------------------------------
Magnitude (a.u.)       :      1.077867618
Magnitude (Debye)      :      2.739721755

Rotational constants in cm-1:             0.117344             0.038730             0.035319
Rotational constants in MHz :          3517.872673          1161.093252          1058.839505

                             ****ORCA TERMINATED NORMALLY****
TOTAL RUN TIME: 0 days 0 hours 0 minutes 40 seconds 476 msec
