                         Program Version 6.0.0  -   RELEASE  -
|  1> ! r2scan-3c def2/J RI DEFGRID2 scfconv6 printgap
|  2> %output
|  3>     printlevel normal
|  4> end
|  5> * xyz 0 1
|  6> C -2.7418264111 0.2297836561 -0.1310819101
|  7> C -1.318157949 0.4513037582 0.3631558613
|  8> C -0.3381086891 -0.4392774881 -0.40207823
|  9> N 1.0437773295 -0.1506272759 -0.0353044196
| 10> O 1.3961560088 1.0090023265 0.0211724424
| 11> O 1.7809544574 -1.0909852263 0.1870943174
| 12> H -3.430312908 0.8501850419 0.4347213064
| 13> H -2.8295109907 0.4900599375 -1.1823616589
| 14> H -3.0335375913 -0.8093814787 -0.0049077791
| 15> H -1.2602976377 0.2229316802 1.4285325631
| 16> H -1.0309674717 1.4945606227 0.2244319922
| 17> H -0.5129559762 -1.49981998 -0.2168919055
| 18> H -0.430358197 -0.2354560619 -1.4730244967
| 19> *
| 20>
| 21>                          ****END OF INPUT****

CARTESIAN COORDINATES (ANGSTROEM)
---------------------------------
  C     -2.741826    0.229784   -0.131082
  C     -1.318158    0.451304    0.363156
  C     -0.338109   -0.439277   -0.402078
  N      1.043777   -0.150627   -0.035304
  O      1.396156    1.009002    0.021172
  O      1.780954   -1.090985    0.187094
  H     -3.430313    0.850185    0.434721
  H     -2.829511    0.490060   -1.182362
  H     -3.033538   -0.809381   -0.004908
  H     -1.260298    0.222932    1.428533
  H     -1.030967    1.494561    0.224432
  H     -0.512956   -1.499820   -0.216892
  H     -0.430358   -0.235456   -1.473024

 Total Charge           Charge          ....    0
 Multiplicity           Mult            ....    1
 Number of Electrons    NEL             ....   48
 Basis Dimension        Dim             ....  164

ORBITAL ENERGIES
----------------

  NO   OCC          E(Eh)            E(eV)
   0   2.0000     -18.983818      -516.5759
   1   2.0000     -18.983414      -516.5650
   2   2.0000     -14.390556      -391.5869
   3   2.0000     -10.097806      -274.7753
   4   2.0000     -10.057120      -273.6682
   5   2.0000     -10.041566      -273.2449
   6   2.0000      -1.205880       -32.8137
   7   2.0000      -1.026723       -27.9385
   8   2.0000      -0.816632       -22.2217
   9   2.0000      -0.733045       -19.9472
  10   2.0000      -0.614574       -16.7234
  11   2.0000      -0.570450       -15.5227
  12   2.0000      -0.520047       -14.1512
  13   2.0000      -0.509777       -13.8717
  14   2.0000      -0.486765       -13.2456
  15   2.0000      -0.455053       -12.3826
  16   2.0000      -0.409351       -11.1390
  17   2.0000      -0.387259       -10.5378
  18   2.0000      -0.366093        -9.9619
  19   2.0000      -0.341807        -9.3010
  20   2.0000      -0.329992        -8.9795
  21   2.0000      -0.292245        -7.9524
  22   2.0000      -0.275141        -7.4870
  23   2.0000      -0.255670        -6.9571
  24   0.0000      -0.100567        -2.7366
  25   0.0000       0.071716         1.9515
  26   0.0000       0.080855         2.2002
  27   0.0000       0.110022         2.9938
  28   0.0000       0.121161         3.2970

MULLIKEN ATOMIC CHARGES
-----------------------
   0 C :   -0.460372
   1 C :   -0.194097
   2 C :   -0.348050
   3 N :    0.280200
   4 O :   -0.201740
   5 O :   -0.204771
   6 H :    0.156947
   7 H :    0.146692
   8 H :    0.143562
   9 H :    0.147337
  10 H :    0.170875
  11 H :    0.188716
  12 H :    0.174701
Sum of atomic charges:    0.0000000

LOEWDIN ATOMIC CHARGES
----------------------
   0 C :   -0.413868
   1 C :   -0.267108
   2 C :    0.025649
   3 N :   -0.535665
   4 O :   -0.010773
   5 O :   -0.003942
   6 H :    0.158149
   7 H :    0.152738
   8 H :    0.152578
   9 H :    0.161106
  10 H :    0.175228
  11 H :    0.201105
  12 H :    0.204803

  Mayer bond orders larger than 0.100000
B(  0-C ,  1-C ) :   0.9073 B(  0-C ,  6-H ) :   0.9680 B(  0-C ,  7-H ) :   0.9832
B(  0-C ,  8-H ) :   0.9741 B(  1-C ,  2-C ) :   0.9197 B(  1-C ,  9-H ) :   0.9478
B(  1-C , 10-H ) :   0.9544 B(  2-C ,  3-N ) :   0.8717 B(  2-C , 11-H ) :   0.9644
B(  2-C , 12-H ) :   0.9408 B(  3-N ,  4-O ) :   1.8473 B(  3-N ,  5-O ) :   1.8314
B(  4-O ,  5-O ) :   0.2813

Dispersion correction           -0.002802683
FINAL SINGLE POINT ENERGY      -323.579763598936

DIPOLE MOMENT
-------------

Method             : SCF
Type of density    : Electron Density
Multiplicity       :   1
Irrep              :   0
Energy             :  -323.5895089520460033 Eh
Relativity type    :
Basis              : AO
                                X                 Y                 Z
Electronic contribution:     10.209694466      -0.617392604       0.451173342
Nuclear contribution   :    -11.700470165       0.479311278      -0.737790731
                        -----------------------------------------
Total Dipole Moment    :     -1.490775699      -0.138081326      -0.286617389
                        -----------------------------------------
Magnitude (a.u.)       :      1.524345159
Magnitude (Debye)      :      3.874577477

Rotational constants in cm-1:             0.312873             0.065945             0.058183
Rotational constants in MHz :          9379.705438          1976.994990          1744.283843

                             ****ORCA TERMINATED NORMALLY****
TOTAL RUN TIME: 0 days 0 hours 0 minutes 26 seconds 225 msec
