                         Program Version 6.0.0  -   RELEASE  -
|  1> ! r2scan-3c def2/J RI DEFGRID2 scfconv6 printgap
|  2> %output
|  3>     printlevel normal
|  4> end
|  5> %cpcm
|  6>     smd true
|  7>     smdsolvent "water"
|  8> end
|  9> * xyz 0 1
| 10> C -2.7418264111 0.2297836561 -0.1310819101
| 11> C -1.318157949 0.4513037582 0.3631558613
| 12> C -0.3381086891 -0.4392774881 -0.40207823
| 13> N 1.0437773295 -0.1506272759 -0.0353044196
| 14> O 1.3961560088 1.0090023265 0.0211724424
| 15> O 1.7809544574 -1.0909852263 0.1870943174
| 16> H -3.430312908 0.8501850419 0.4347213064
| 17> H -2.8295109907 0.4900599375 -1.1823616589
| 18> H -3.0335375913 -0.8093814787 -0.0049077791
| 19> H -1.2602976377 0.2229316802 1.4285325631
| 20> H -1.0309674717 1.4945606227 0.2244319922
| 21> H -0.5129559762 -1.49981998 -0.2168919055
| 22> H -0.430358197 -0.2354560619 -1.4730244967
| 23> *
| 24>
| 25>                          ****END OF INPUT****

CARTESIAN COORDINATES (ANGSTROEM)
---------------------------------
  C     -2.741826    0.229784   -0.131082
  C     -1.318158    0.451304    0.363156
  C     -0.338109   -0.439277   -0.402078
  N      1.043777   -0.150627   -0.035304
  O      1.396156    1.009002    0.021172
  O      1.780954   -1.090985    0.187094
  H     -3.430313    0.850185    0.434721
  H     -2.829511    0.490060   -1.182362
  H     -3.033538   -0.809381   -0.004908
  H     -1.260298    0.222932    1.428533
  H     -1.030967    1.494561    0.224432
  H     -0.512956   -1.499820   -0.216892
  H     -0.430358   -0.235456   -1.473024

 Total Charge           Charge          ....    0
 Multiplicity           Mult            ....    1
 Number of Electrons    NEL             ....   48
 Basis Dimension        Dim             ....  164

ORBITAL ENERGIES
----------------

  NO   OCC          E(Eh)            E(eV)
   0   2.0000     -18.996079      -516.9096
   1   2.0000     -18.995184      -516.8852
   2   2.0000     -14.398383      -391.7999
   3   2.0000     -10.080181      -274.2957
   4   2.0000     -10.036964      -273.1197
   5   2.0000     -10.016740      -272.5693
   6   2.0000      -1.215810       -33.0839
   7   2.0000      -1.038022       -28.2460
   8   2.0000      -0.804718       -21.8975
   9   2.0000      -0.716391       -19.4940
  10   2.0000      -0.601719       -16.3736
  11   2.0000      -0.563332       -15.3290
  12   2.0000      -0.523634       -14.2488
  13   2.0000      -0.508933       -13.8488
  14   2.0000      -0.497705       -13.5432
  15   2.0000      -0.437862       -11.9148
  16   2.0000      -0.388485       -10.5712
  17   2.0000      -0.366015        -9.9598
  18   2.0000      -0.347788        -9.4638
  19   2.0000      -0.320776        -8.7288
  20   2.0000      -0.308609        -8.3977
  21   2.0000      -0.304784        -8.2936
  22   2.0000      -0.284938        -7.7536
  23   2.0000      -0.268875        -7.3165
  24   0.0000      -0.109134        -2.9697
  25   0.0000       0.092340         2.5127
  26   0.0000       0.098136         2.6704
  27   0.0000       0.127339         3.4651
  28   0.0000       0.142744         3.8843

MULLIKEN ATOMIC CHARGES
-----------------------
   0 C :   -0.505940
   1 C :   -0.194830
   2 C :   -0.345360
   3 N :    0.326306
   4 O :   -0.259035
   5 O :   -0.264328
   6 H :    0.166540
   7 H :    0.161894
   8 H :    0.159045
   9 H :    0.165288
  10 H :    0.165397
  11 H :    0.207914
  12 H :    0.217108
Sum of atomic charges:    0.0000000

LOEWDIN ATOMIC CHARGES
----------------------
   0 C :   -0.417669
   1 C :   -0.262597
   2 C :    0.040201
   3 N :   -0.526877
   4 O :   -0.043753
   5 O :   -0.039051
   6 H :    0.160267
   7 H :    0.157350
   8 H :    0.157488
   9 H :    0.166380
  10 H :    0.172581
  11 H :    0.211854
  12 H :    0.223825

  Mayer bond orders larger than 0.100000
B(  0-C ,  1-C ) :   0.9028 B(  0-C ,  6-H ) :   0.9656 B(  0-C ,  7-H ) :   0.9796
B(  0-C ,  8-H ) :   0.9720 B(  1-C ,  2-C ) :   0.8988 B(  1-C ,  9-H ) :   0.9486
B(  1-C , 10-H ) :   0.9567 B(  2-C ,  3-N ) :   0.8928 B(  2-C , 11-H ) :   0.9518
B(  2-C , 12-H ) :   0.9176 B(  3-N ,  4-O ) :   1.8043 B(  3-N ,  5-O ) :   1.7867
B(  4-O ,  5-O ) :   0.2695

Dispersion correction           -0.002802683
FINAL SINGLE POINT ENERGY      -323.585357216291

DIPOLE MOMENT
-------------

Method             : SCF
Type of density    : Electron Density
Multiplicity       :   1
Irrep              :   0
Energy             :  -323.5951025694002965 Eh
Relativity type    :
Basis              : AO
                                X                 Y                 Z
Electronic contribution:      9.786045028      -0.722214825       0.314032032
Nuclear contribution   :    -11.700470165       0.479311278      -0.737790731
                        -----------------------------------------
Total Dipole Moment    :     -1.914425136      -0.242903547      -0.423758699
                        -----------------------------------------
Magnitude (a.u.)       :      1.975752305
Magnitude (Debye)      :      5.021963258

Rotational constants in cm-1:             0.312873             0.065945             0.058183
Rotational constants in MHz :          9379.705438          1976.994990          1744.283843

                             ****ORCA TERMINATED NORMALLY****
TOTAL RUN TIME: 0 days 0 hours 0 minutes 27 seconds 541 msec
