                         Program Version 6.0.1  -  RELEASE   -
|  1> ! r2scan-3c def2/J RI DEFGRID2 scfconv6 printgap
|  2> %output
|  3>     printlevel normal
|  4> end
|  5> * xyz 0 1
|  6> C -3.7830403709 0.9398036264 -1.6422144405
|  7> C -3.3077142666 -0.1014916351 -0.6279094675
|  8> H -3.5831106915 -1.1073210901 -0.9526192044
|  9> C -1.8088672569 -0.0392184416 -0.4340977054
| 10> C -1.2031281298 1.0987693895 0.0869471168
| 11> C 0.166765775 1.1582526119 0.2479138359
| 12> C 0.9892918705 0.0858370645 -0.0970395643
| 13> C 0.3552197771 -1.0396446408 -0.6117775904
| 14> C -1.0120373006 -1.1199644743 -0.7836671533
| 15> F 1.0985460382 -2.1188438786 -0.9971426398
| 16> C 2.448017987 0.1627637138 0.080181077
| 17> C 3.1606578068 -0.8930656747 0.6421742479
| 18> C 4.5299303268 -0.799725719 0.81298342
| 19> C 5.2053286177 0.3444544208 0.4227295552
| 20> C 4.5039406751 1.3993065934 -0.1381648314
| 21> C 3.1346601011 1.3119512215 -0.3059671739
| 22> C -3.9359872429 0.133111442 0.7323804535
| 23> O -4.1787944995 1.2193976219 1.2077329995
| 24> O -4.1615955501 -1.0005145451 1.3738872906
| 25> H -3.6337419526 1.9412544385 -1.248529508
| 26> H -3.2246349654 0.8338572478 -2.5675105313
| 27> H -4.8415900568 0.8054979868 -1.8480390722
| 28> H -1.8139580299 1.9381796213 0.3815966909
| 29> H 0.6194011059 2.0434135676 0.6663452261
| 30> H -1.4360350627 -2.0226399487 -1.1940131336
| 31> H 2.6400016169 -1.7851766619 0.9570766219
| 32> H 5.070446 -1.6241751367 1.2529945082
| 33> H 6.2743074348 0.4135715481 0.5548333014
| 34> H 5.0260615632 2.2923551776 -0.4467837904
| 35> H 2.5915433735 2.128730456 -0.7571176985
| 36> H -4.5317445533 -0.8670529799 2.2687856512
| 37> *
| 38>
| 39>                          ****END OF INPUT****

CARTESIAN COORDINATES (ANGSTROEM)
---------------------------------
  C     -3.783040    0.939804   -1.642214
  C     -3.307714   -0.101492   -0.627909
  H     -3.583111   -1.107321   -0.952619
  C     -1.808867   -0.039218   -0.434098
  C     -1.203128    1.098769    0.086947
  C      0.166766    1.158253    0.247914
  C      0.989292    0.085837   -0.097040
  C      0.355220   -1.039645   -0.611778
  C     -1.012037   -1.119964   -0.783667
  F      1.098546   -2.118844   -0.997143
  C      2.448018    0.162764    0.080181
  C      3.160658   -0.893066    0.642174
  C      4.529930   -0.799726    0.812983
  C      5.205329    0.344454    0.422730
  C      4.503941    1.399307   -0.138165
  C      3.134660    1.311951   -0.305967
  C     -3.935987    0.133111    0.732380
  O     -4.178794    1.219398    1.207733
  O     -4.161596   -1.000515    1.373887
  H     -3.633742    1.941254   -1.248530
  H     -3.224635    0.833857   -2.567511
  H     -4.841590    0.805498   -1.848039
  H     -1.813958    1.938180    0.381597
  H      0.619401    2.043414    0.666345
  H     -1.436035   -2.022640   -1.194013
  H      2.640002   -1.785177    0.957077
  H      5.070446   -1.624175    1.252995
  H      6.274307    0.413572    0.554833
  H      5.026062    2.292355   -0.446784
  H      2.591543    2.128730   -0.757118
  H     -4.531745   -0.867053    2.268786

 Total Charge           Charge          ....    0
 Multiplicity           Mult            ....    1
 Number of Electrons    NEL             ....  128
 Basis Dimension        Dim             ....  422

ORBITAL ENERGIES
----------------

  NO   OCC          E(Eh)            E(eV)
   0   2.0000     -24.497697      -666.6162
   1   2.0000     -19.011812      -517.3377
   2   2.0000     -18.942068      -515.4399
   3   2.0000     -10.168539      -276.7000
   4   2.0000     -10.124995      -275.5151
   5   2.0000     -10.067277      -273.9445
   6   2.0000     -10.062490      -273.8143
   7   2.0000     -10.057279      -273.6725
   8   2.0000     -10.052426      -273.5404
   9   2.0000     -10.047959      -273.4189
  10   2.0000     -10.047770      -273.4137
  11   2.0000     -10.039867      -273.1987
  12   2.0000     -10.039322      -273.1838
  13   2.0000     -10.038437      -273.1598
  14   2.0000     -10.037891      -273.1449
  15   2.0000     -10.037550      -273.1356
  16   2.0000     -10.037221      -273.1267
  17   2.0000     -10.033211      -273.0175
  18   2.0000      -1.181165       -32.1411
  19   2.0000      -1.086087       -29.5539
  20   2.0000      -0.988293       -26.8928
  21   2.0000      -0.854010       -23.2388
  22   2.0000      -0.831463       -22.6253
  23   2.0000      -0.789964       -21.4960
  24   2.0000      -0.744930       -20.2706
  25   2.0000      -0.726905       -19.7801
  26   2.0000      -0.720053       -19.5936
  27   2.0000      -0.694149       -18.8888
  28   2.0000      -0.656047       -17.8519
  29   2.0000      -0.611912       -16.6510
  30   2.0000      -0.600919       -16.3518
  31   2.0000      -0.574529       -15.6337
  32   2.0000      -0.569725       -15.5030
  33   2.0000      -0.555255       -15.1092
  34   2.0000      -0.511597       -13.9213
  35   2.0000      -0.495016       -13.4701
  36   2.0000      -0.481628       -13.1058
  37   2.0000      -0.460900       -12.5417
  38   2.0000      -0.455163       -12.3856
  39   2.0000      -0.449703       -12.2370
  40   2.0000      -0.444131       -12.0854
  41   2.0000      -0.432245       -11.7620
  42   2.0000      -0.420878       -11.4527
  43   2.0000      -0.418462       -11.3869
  44   2.0000      -0.412616       -11.2278
  45   2.0000      -0.402080       -10.9411
  46   2.0000      -0.392757       -10.6875
  47   2.0000      -0.382532       -10.4092
  48   2.0000      -0.377089       -10.2611
  49   2.0000      -0.369321       -10.0497
  50   2.0000      -0.356030        -9.6881
  51   2.0000      -0.353907        -9.6303
  52   2.0000      -0.344584        -9.3766
  53   2.0000      -0.334480        -9.1017
  54   2.0000      -0.332855        -9.0574
  55   2.0000      -0.325320        -8.8524
  56   2.0000      -0.315732        -8.5915
  57   2.0000      -0.306739        -8.3468
  58   2.0000      -0.299818        -8.1585
  59   2.0000      -0.263862        -7.1801
  60   2.0000      -0.248267        -6.7557
  61   2.0000      -0.241040        -6.5590
  62   2.0000      -0.240063        -6.5324
  63   2.0000      -0.216328        -5.8866
  64   0.0000      -0.064136        -1.7452
  65   0.0000      -0.039691        -1.0800
  66   0.0000      -0.034752        -0.9457
  67   0.0000      -0.027293        -0.7427
  68   0.0000      -0.005922        -0.1611

MULLIKEN ATOMIC CHARGES
-----------------------
   0 C :   -0.487870
   1 C :   -0.039659
   2 H :    0.151268
   3 C :    0.138182
   4 C :   -0.237640
   5 C :   -0.197603
   6 C :    0.065355
   7 C :    0.301224
   8 C :   -0.345327
   9 F :   -0.241041
  10 C :    0.105338
  11 C :   -0.180148
  12 C :   -0.172190
  13 C :   -0.136053
  14 C :   -0.170302
  15 C :   -0.209043
  16 C :    0.338817
  17 O :   -0.407556
  18 O :   -0.334949
  19 H :    0.179267
  20 H :    0.158214
  21 H :    0.150745
  22 H :    0.176159
  23 H :    0.155868
  24 H :    0.162849
  25 H :    0.155256
  26 H :    0.145796
  27 H :    0.146870
  28 H :    0.145735
  29 H :    0.152550
  30 H :    0.329888
Sum of atomic charges:    0.0000000

LOEWDIN ATOMIC CHARGES
----------------------
   0 C :   -0.370839
   1 C :   -0.145946
   2 H :    0.186304
   3 C :   -0.059959
   4 C :   -0.146327
   5 C :   -0.125807
   6 C :   -0.063334
   7 C :    0.237390
   8 C :   -0.137748
   9 F :   -0.288680
  10 C :   -0.062759
  11 C :   -0.132679
  12 C :   -0.158982
  13 C :   -0.163373
  14 C :   -0.160247
  15 C :   -0.145958
  16 C :    0.352959
  17 O :   -0.423763
  18 O :   -0.390947
  19 H :    0.172223
  20 H :    0.161195
  21 H :    0.159913
  22 H :    0.187354
  23 H :    0.178086
  24 H :    0.185096
  25 H :    0.177673
  26 H :    0.168303
  27 H :    0.167275
  28 H :    0.167985
  29 H :    0.174013
  30 H :    0.301580

  Mayer bond orders larger than 0.100000
B(  0-C ,  1-C ) :   0.9331 B(  0-C , 19-H ) :   0.9632 B(  0-C , 20-H ) :   0.9741
B(  0-C , 21-H ) :   0.9702 B(  1-C ,  2-H ) :   0.9699 B(  1-C ,  3-C ) :   0.8347
B(  1-C , 16-C ) :   0.9406 B(  3-C ,  4-C ) :   1.3947 B(  3-C ,  6-C ) :   0.1014
B(  3-C ,  8-C ) :   1.3622 B(  4-C ,  5-C ) :   1.4368 B(  4-C , 22-H ) :   0.9302
B(  5-C ,  6-C ) :   1.3401 B(  5-C , 23-H ) :   0.9428 B(  6-C ,  7-C ) :   1.4571
B(  6-C , 10-C ) :   0.7796 B(  7-C ,  8-C ) :   1.4185 B(  7-C ,  9-F ) :   0.8943
B(  8-C , 24-H ) :   0.9158 B( 10-C , 11-C ) :   1.4179 B( 10-C , 15-C ) :   1.3942
B( 11-C , 12-C ) :   1.4384 B( 11-C , 25-H ) :   0.9365 B( 12-C , 13-C ) :   1.4131
B( 12-C , 26-H ) :   0.9508 B( 13-C , 14-C ) :   1.4165 B( 13-C , 27-H ) :   0.9463
B( 14-C , 15-C ) :   1.4354 B( 14-C , 28-H ) :   0.9491 B( 15-C , 29-H ) :   0.9421
B( 16-C , 17-O ) :   1.9144 B( 16-C , 18-O ) :   1.0664 B( 18-O , 30-H ) :   0.8593

Dispersion correction           -0.013408500
FINAL SINGLE POINT ENERGY      -829.578309755587

DIPOLE MOMENT
-------------

Method             : SCF
Type of density    : Electron Density
Multiplicity       :   1
Irrep              :   0
Energy             :  -829.5755220725814070 Eh
Relativity type    :
Basis              : AO
                                X                 Y                 Z
Electronic contribution:      1.777072373      -6.848683435       1.826447160
Nuclear contribution   :     -1.932252207       6.648323298      -1.789543972
                        -----------------------------------------
Total Dipole Moment    :     -0.155179834      -0.200360137       0.036903188
                        -----------------------------------------
Magnitude (a.u.)       :      0.256099221
Magnitude (Debye)      :      0.650952487

Rotational constants in cm-1:             0.036361             0.006393             0.006097
Rotational constants in MHz :          1090.073896           191.647835           182.789954

                             ****ORCA TERMINATED NORMALLY****
TOTAL RUN TIME: 0 days 0 hours 1 minutes 28 seconds 487 msec
