                         Program Version 6.0.1  -  RELEASE   -
|  1> ! r2scan-3c def2/J RI DEFGRID2 scfconv6 printgap
|  2> %output
|  3>     printlevel normal
|  4> end
|  5> %cpcm
|  6>     smd true
|  7>     smdsolvent "water"
|  8> end
|  9> * xyz 0 1
| 10> C -3.7830403709 0.9398036264 -1.6422144405
| 11> C -3.3077142666 -0.1014916351 -0.6279094675
| 12> H -3.5831106915 -1.1073210901 -0.9526192044
| 13> C -1.8088672569 -0.0392184416 -0.4340977054
| 14> C -1.2031281298 1.0987693895 0.0869471168
| 15> C 0.166765775 1.1582526119 0.2479138359
| 16> C 0.9892918705 0.0858370645 -0.0970395643
| 17> C 0.3552197771 -1.0396446408 -0.6117775904
| 18> C -1.0120373006 -1.1199644743 -0.7836671533
| 19> F 1.0985460382 -2.1188438786 -0.9971426398
| 20> C 2.448017987 0.1627637138 0.080181077
| 21> C 3.1606578068 -0.8930656747 0.6421742479
| 22> C 4.5299303268 -0.799725719 0.81298342
| 23> C 5.2053286177 0.3444544208 0.4227295552
| 24> C 4.5039406751 1.3993065934 -0.1381648314
| 25> C 3.1346601011 1.3119512215 -0.3059671739
| 26> C -3.9359872429 0.133111442 0.7323804535
| 27> O -4.1787944995 1.2193976219 1.2077329995
| 28> O -4.1615955501 -1.0005145451 1.3738872906
| 29> H -3.6337419526 1.9412544385 -1.248529508
| 30> H -3.2246349654 0.8338572478 -2.5675105313
| 31> H -4.8415900568 0.8054979868 -1.8480390722
| 32> H -1.8139580299 1.9381796213 0.3815966909
| 33> H 0.6194011059 2.0434135676 0.6663452261
| 34> H -1.4360350627 -2.0226399487 -1.1940131336
| 35> H 2.6400016169 -1.7851766619 0.9570766219
| 36> H 5.070446 -1.6241751367 1.2529945082
| 37> H 6.2743074348 0.4135715481 0.5548333014
| 38> H 5.0260615632 2.2923551776 -0.4467837904
| 39> H 2.5915433735 2.128730456 -0.7571176985
| 40> H -4.5317445533 -0.8670529799 2.2687856512
| 41> *
| 42>
| 43>                          ****END OF INPUT****

CARTESIAN COORDINATES (ANGSTROEM)
---------------------------------
  C     -3.783040    0.939804   -1.642214
  C     -3.307714   -0.101492   -0.627909
  H     -3.583111   -1.107321   -0.952619
  C     -1.808867   -0.039218   -0.434098
  C     -1.203128    1.098769    0.086947
  C      0.166766    1.158253    0.247914
  C      0.989292    0.085837   -0.097040
  C      0.355220   -1.039645   -0.611778
  C     -1.012037   -1.119964   -0.783667
  F      1.098546   -2.118844   -0.997143
  C      2.448018    0.162764    0.080181
  C      3.160658   -0.893066    0.642174
  C      4.529930   -0.799726    0.812983
  C      5.205329    0.344454    0.422730
  C      4.503941    1.399307   -0.138165
  C      3.134660    1.311951   -0.305967
  C     -3.935987    0.133111    0.732380
  O     -4.178794    1.219398    1.207733
  O     -4.161596   -1.000515    1.373887
  H     -3.633742    1.941254   -1.248530
  H     -3.224635    0.833857   -2.567511
  H     -4.841590    0.805498   -1.848039
  H     -1.813958    1.938180    0.381597
  H      0.619401    2.043414    0.666345
  H     -1.436035   -2.022640   -1.194013
  H      2.640002   -1.785177    0.957077
  H      5.070446   -1.624175    1.252995
  H      6.274307    0.413572    0.554833
  H      5.026062    2.292355   -0.446784
  H      2.591543    2.128730   -0.757118
  H     -4.531745   -0.867053    2.268786

 Total Charge           Charge          ....    0
 Multiplicity           Mult            ....    1
 Number of Electrons    NEL             ....  128
 Basis Dimension        Dim             ....  422

ORBITAL ENERGIES
----------------

  NO   OCC          E(Eh)            E(eV)
   0   2.0000     -24.502368      -666.7433
   1   2.0000     -19.004156      -517.1294
   2   2.0000     -18.948425      -515.6129
   3   2.0000     -10.171430      -276.7787
   4   2.0000     -10.124693      -275.5069
   5   2.0000     -10.059374      -273.7295
   6   2.0000     -10.058072      -273.6941
   7   2.0000     -10.056358      -273.6474
   8   2.0000     -10.052307      -273.5372
   9   2.0000     -10.044257      -273.3181
  10   2.0000     -10.043283      -273.2916
  11   2.0000     -10.036703      -273.1126
  12   2.0000     -10.036592      -273.1096
  13   2.0000     -10.036346      -273.1029
  14   2.0000     -10.035317      -273.0749
  15   2.0000     -10.035100      -273.0689
  16   2.0000     -10.034317      -273.0476
  17   2.0000     -10.022215      -272.7183
  18   2.0000      -1.186464       -32.2853
  19   2.0000      -1.082609       -29.4593
  20   2.0000      -0.991435       -26.9783
  21   2.0000      -0.852503       -23.1978
  22   2.0000      -0.830341       -22.5947
  23   2.0000      -0.785347       -21.3704
  24   2.0000      -0.741613       -20.1803
  25   2.0000      -0.724714       -19.7205
  26   2.0000      -0.718280       -19.5454
  27   2.0000      -0.691267       -18.8103
  28   2.0000      -0.646687       -17.5972
  29   2.0000      -0.607620       -16.5342
  30   2.0000      -0.598348       -16.2819
  31   2.0000      -0.571973       -15.5642
  32   2.0000      -0.564408       -15.3583
  33   2.0000      -0.551557       -15.0086
  34   2.0000      -0.509079       -13.8527
  35   2.0000      -0.492725       -13.4077
  36   2.0000      -0.478544       -13.0218
  37   2.0000      -0.461778       -12.5656
  38   2.0000      -0.457161       -12.4400
  39   2.0000      -0.447015       -12.1639
  40   2.0000      -0.441303       -12.0085
  41   2.0000      -0.434161       -11.8141
  42   2.0000      -0.419491       -11.4149
  43   2.0000      -0.415150       -11.2968
  44   2.0000      -0.406590       -11.0639
  45   2.0000      -0.395881       -10.7725
  46   2.0000      -0.388599       -10.5743
  47   2.0000      -0.379911       -10.3379
  48   2.0000      -0.373249       -10.1566
  49   2.0000      -0.368347       -10.0232
  50   2.0000      -0.355103        -9.6628
  51   2.0000      -0.350421        -9.5354
  52   2.0000      -0.339664        -9.2427
  53   2.0000      -0.331593        -9.0231
  54   2.0000      -0.329106        -8.9554
  55   2.0000      -0.318315        -8.6618
  56   2.0000      -0.311383        -8.4732
  57   2.0000      -0.303047        -8.2463
  58   2.0000      -0.302594        -8.2340
  59   2.0000      -0.264593        -7.2000
  60   2.0000      -0.253936        -6.9099
  61   2.0000      -0.242544        -6.6000
  62   2.0000      -0.239809        -6.5255
  63   2.0000      -0.216941        -5.9033
  64   0.0000      -0.063610        -1.7309
  65   0.0000      -0.038576        -1.0497
  66   0.0000      -0.035315        -0.9610
  67   0.0000      -0.027769        -0.7556
  68   0.0000      -0.005776        -0.1572

MULLIKEN ATOMIC CHARGES
-----------------------
   0 C :   -0.544189
   1 C :    0.004981
   2 H :    0.182424
   3 C :    0.106119
   4 C :   -0.269909
   5 C :   -0.210465
   6 C :    0.075176
   7 C :    0.307408
   8 C :   -0.358230
   9 F :   -0.250150
  10 C :    0.061565
  11 C :   -0.212134
  12 C :   -0.211186
  13 C :   -0.163315
  14 C :   -0.212733
  15 C :   -0.213703
  16 C :    0.353166
  17 O :   -0.480193
  18 O :   -0.357735
  19 H :    0.181070
  20 H :    0.175295
  21 H :    0.172861
  22 H :    0.193381
  23 H :    0.186684
  24 H :    0.199114
  25 H :    0.183205
  26 H :    0.178584
  27 H :    0.180388
  28 H :    0.178785
  29 H :    0.184442
  30 H :    0.379294
Sum of atomic charges:    0.0000000

LOEWDIN ATOMIC CHARGES
----------------------
   0 C :   -0.375788
   1 C :   -0.140897
   2 H :    0.198905
   3 C :   -0.061285
   4 C :   -0.153568
   5 C :   -0.127665
   6 C :   -0.070131
   7 C :    0.229693
   8 C :   -0.136220
   9 F :   -0.299618
  10 C :   -0.074668
  11 C :   -0.146801
  12 C :   -0.168294
  13 C :   -0.171939
  14 C :   -0.167875
  15 C :   -0.149665
  16 C :    0.361652
  17 O :   -0.477848
  18 O :   -0.381468
  19 H :    0.170221
  20 H :    0.167061
  21 H :    0.166488
  22 H :    0.191901
  23 H :    0.189239
  24 H :    0.198606
  25 H :    0.185376
  26 H :    0.179322
  27 H :    0.178287
  28 H :    0.179364
  29 H :    0.185294
  30 H :    0.322322

  Mayer bond orders larger than 0.100000
B(  0-C ,  1-C ) :   0.9042 B(  0-C , 19-H ) :   0.9648 B(  0-C , 20-H ) :   0.9697
B(  0-C , 21-H ) :   0.9680 B(  1-C ,  2-H ) :   0.9611 B(  1-C ,  3-C ) :   0.8296
B(  1-C , 16-C ) :   0.9403 B(  3-C ,  4-C ) :   1.3540 B(  3-C ,  8-C ) :   1.3831
B(  4-C ,  5-C ) :   1.4458 B(  4-C , 22-H ) :   0.9358 B(  5-C ,  6-C ) :   1.3315
B(  5-C , 23-H ) :   0.9411 B(  6-C ,  7-C ) :   1.4301 B(  6-C , 10-C ) :   0.7635
B(  7-C ,  8-C ) :   1.3828 B(  7-C ,  9-F ) :   0.8931 B(  8-C , 24-H ) :   0.9252
B( 10-C , 11-C ) :   1.3761 B( 10-C , 15-C ) :   1.3729 B( 11-C , 12-C ) :   1.4133
B( 11-C , 25-H ) :   0.9460 B( 12-C , 13-C ) :   1.3796 B( 12-C , 26-H ) :   0.9595
B( 13-C , 14-C ) :   1.3800 B( 13-C , 27-H ) :   0.9522 B( 14-C , 15-C ) :   1.4124
B( 14-C , 28-H ) :   0.9589 B( 15-C , 29-H ) :   0.9467 B( 16-C , 17-O ) :   1.8574
B( 16-C , 18-O ) :   1.0992 B( 18-O , 30-H ) :   0.8350

Dispersion correction           -0.013408500
FINAL SINGLE POINT ENERGY      -829.590987432828

DIPOLE MOMENT
-------------

Method             : SCF
Type of density    : Electron Density
Multiplicity       :   1
Irrep              :   0
Energy             :  -829.5881997498223654 Eh
Relativity type    :
Basis              : AO
                                X                 Y                 Z
Electronic contribution:      1.658276589      -6.993233507       1.786903765
Nuclear contribution   :     -1.932252207       6.648323298      -1.789543972
                        -----------------------------------------
Total Dipole Moment    :     -0.273975618      -0.344910209      -0.002640207
                        -----------------------------------------
Magnitude (a.u.)       :      0.440491387
Magnitude (Debye)      :      1.119640127

Rotational constants in cm-1:             0.036361             0.006393             0.006097
Rotational constants in MHz :          1090.073896           191.647835           182.789954

                             ****ORCA TERMINATED NORMALLY****
TOTAL RUN TIME: 0 days 0 hours 1 minutes 48 seconds 618 msec
