                         Program Version 6.0.0  -   RELEASE  -
|  1> ! r2scan-3c def2/J RI DEFGRID2 scfconv6 printgap
|  2> %output
|  3>     printlevel normal
|  4> end
|  5> * xyz 0 1
|  6> C -3.3181982667 -1.0574906222 0.2511375909
|  7> C -1.8698302158 -0.8216993576 -0.1571931322
|  8> C -1.3560714063 0.5257214866 0.3726576075
|  9> C 0.0633808525 0.722883523 -0.0853901965
| 10> O 0.388243112 1.2786407601 -1.1145642351
| 11> O 0.9272598461 0.1833392686 0.7648293479
| 12> C 2.3255270912 0.2105753077 0.4328843543
| 13> C 2.707447897 -0.9875982679 -0.4227708367
| 14> H -3.9593334818 -0.2772635594 -0.1507446968
| 15> H -3.6620337347 -2.0159511612 -0.1278394168
| 16> H -3.412646907 -1.0591056355 1.3338018683
| 17> H -1.7856022976 -0.8297985087 -1.2460517247
| 18> H -1.2400805953 -1.6212233336 0.2374062893
| 19> H -1.3845414112 0.5274794473 1.4613650394
| 20> H -1.9683209673 1.3351333707 -0.0237916213
| 21> H 2.5402530323 1.1449262815 -0.0945745443
| 22> H 2.8377724959 0.1914391936 1.3951859732
| 23> H 2.4448958375 -1.9107839813 0.0866647598
| 24> H 2.1834847611 -0.9465290666 -1.3752080061
| 25> H 3.7764238655 -0.9715251703 -0.6078925317
| 26> *
| 27>
| 28>                          ****END OF INPUT****

CARTESIAN COORDINATES (ANGSTROEM)
---------------------------------
  C     -3.318198   -1.057491    0.251138
  C     -1.869830   -0.821699   -0.157193
  C     -1.356071    0.525721    0.372658
  C      0.063381    0.722884   -0.085390
  O      0.388243    1.278641   -1.114564
  O      0.927260    0.183339    0.764829
  C      2.325527    0.210575    0.432884
  C      2.707448   -0.987598   -0.422771
  H     -3.959333   -0.277264   -0.150745
  H     -3.662034   -2.015951   -0.127839
  H     -3.412647   -1.059106    1.333802
  H     -1.785602   -0.829799   -1.246052
  H     -1.240081   -1.621223    0.237406
  H     -1.384541    0.527479    1.461365
  H     -1.968321    1.335133   -0.023792
  H      2.540253    1.144926   -0.094575
  H      2.837772    0.191439    1.395186
  H      2.444896   -1.910784    0.086665
  H      2.183485   -0.946529   -1.375208
  H      3.776424   -0.971525   -0.607893

 Total Charge           Charge          ....    0
 Multiplicity           Mult            ....    1
 Number of Electrons    NEL             ....   64
 Basis Dimension        Dim             ....  222

ORBITAL ENERGIES
----------------

  NO   OCC          E(Eh)            E(eV)
   0   2.0000     -18.995349      -516.8897
   1   2.0000     -18.925800      -514.9972
   2   2.0000     -10.150011      -276.1959
   3   2.0000     -10.090357      -274.5726
   4   2.0000     -10.040065      -273.2041
   5   2.0000     -10.039053      -273.1765
   6   2.0000     -10.028634      -272.8930
   7   2.0000     -10.023785      -272.7611
   8   2.0000      -1.070112       -29.1192
   9   2.0000      -0.973474       -26.4896
  10   2.0000      -0.775235       -21.0952
  11   2.0000      -0.739546       -20.1241
  12   2.0000      -0.680958       -18.5298
  13   2.0000      -0.621321       -16.9070
  14   2.0000      -0.569348       -15.4927
  15   2.0000      -0.521668       -14.1953
  16   2.0000      -0.472234       -12.8501
  17   2.0000      -0.456228       -12.4146
  18   2.0000      -0.439588       -11.9618
  19   2.0000      -0.422817       -11.5054
  20   2.0000      -0.410596       -11.1729
  21   2.0000      -0.391311       -10.6481
  22   2.0000      -0.370602       -10.0846
  23   2.0000      -0.361439        -9.8353
  24   2.0000      -0.359930        -9.7942
  25   2.0000      -0.344579        -9.3765
  26   2.0000      -0.326223        -8.8770
  27   2.0000      -0.311976        -8.4893
  28   2.0000      -0.309906        -8.4330
  29   2.0000      -0.304640        -8.2897
  30   2.0000      -0.269402        -7.3308
  31   2.0000      -0.232236        -6.3195
  32   0.0000      -0.013402        -0.3647
  33   0.0000       0.077347         2.1047
  34   0.0000       0.091478         2.4892
  35   0.0000       0.102810         2.7976
  36   0.0000       0.120972         3.2918

MULLIKEN ATOMIC CHARGES
-----------------------
   0 C :   -0.473251
   1 C :   -0.232528
   2 C :   -0.343539
   3 C :    0.421632
   4 O :   -0.430947
   5 O :   -0.183294
   6 C :   -0.138870
   7 C :   -0.468364
   8 H :    0.146655
   9 H :    0.150693
  10 H :    0.144683
  11 H :    0.154841
  12 H :    0.146638
  13 H :    0.156631
  14 H :    0.161903
  15 H :    0.169242
  16 H :    0.147636
  17 H :    0.151319
  18 H :    0.171577
  19 H :    0.147344
Sum of atomic charges:    0.0000000

LOEWDIN ATOMIC CHARGES
----------------------
   0 C :   -0.419433
   1 C :   -0.287771
   2 C :   -0.229181
   3 C :    0.356066
   4 O :   -0.434008
   5 O :   -0.596400
   6 C :    0.027179
   7 C :   -0.391014
   8 H :    0.151583
   9 H :    0.153067
  10 H :    0.150738
  11 H :    0.160790
  12 H :    0.158070
  13 H :    0.176207
  14 H :    0.177086
  15 H :    0.188811
  16 H :    0.177417
  17 H :    0.156561
  18 H :    0.165033
  19 H :    0.159199

  Mayer bond orders larger than 0.100000
B(  0-C ,  1-C ) :   0.8960 B(  0-C ,  8-H ) :   0.9839 B(  0-C ,  9-H ) :   0.9720
B(  0-C , 10-H ) :   0.9849 B(  1-C ,  2-C ) :   0.9219 B(  1-C , 11-H ) :   0.9602
B(  1-C , 12-H ) :   0.9605 B(  2-C ,  3-C ) :   0.9641 B(  2-C , 13-H ) :   0.9798
B(  2-C , 14-H ) :   0.9783 B(  3-C ,  4-O ) :   1.8460 B(  3-C ,  5-O ) :   1.0289
B(  5-O ,  6-C ) :   0.8167 B(  6-C ,  7-C ) :   0.9324 B(  6-C , 15-H ) :   0.9677
B(  6-C , 16-H ) :   0.9626 B(  7-C , 17-H ) :   0.9738 B(  7-C , 18-H ) :   0.9716
B(  7-C , 19-H ) :   0.9654

Dispersion correction           -0.005031676
FINAL SINGLE POINT ENERGY      -386.235843761793

DIPOLE MOMENT
-------------

Method             : SCF
Type of density    : Electron Density
Multiplicity       :   1
Irrep              :   0
Energy             :  -386.2424680350782751 Eh
Relativity type    :
Basis              : AO
                                X                 Y                 Z
Electronic contribution:      3.453003848       5.442595296      -0.237100981
Nuclear contribution   :     -3.385784754      -6.013737515       0.828207617
                        -----------------------------------------
Total Dipole Moment    :      0.067219094      -0.571142219       0.591106636
                        -----------------------------------------
Magnitude (a.u.)       :      0.824699276
Magnitude (Debye)      :      2.096218970

Rotational constants in cm-1:             0.131092             0.033359             0.030755
Rotational constants in MHz :          3930.042160          1000.062911           922.001086

                             ****ORCA TERMINATED NORMALLY****
TOTAL RUN TIME: 0 days 0 hours 0 minutes 31 seconds 201 msec
