                         Program Version 6.0.0  -   RELEASE  -
|  1> ! r2scan-3c def2/J RI DEFGRID2 scfconv6 printgap
|  2> %output
|  3>     printlevel normal
|  4> end
|  5> %cpcm
|  6>     smd true
|  7>     smdsolvent "water"
|  8> end
|  9> * xyz 0 1
| 10> C -3.3181982667 -1.0574906222 0.2511375909
| 11> C -1.8698302158 -0.8216993576 -0.1571931322
| 12> C -1.3560714063 0.5257214866 0.3726576075
| 13> C 0.0633808525 0.722883523 -0.0853901965
| 14> O 0.388243112 1.2786407601 -1.1145642351
| 15> O 0.9272598461 0.1833392686 0.7648293479
| 16> C 2.3255270912 0.2105753077 0.4328843543
| 17> C 2.707447897 -0.9875982679 -0.4227708367
| 18> H -3.9593334818 -0.2772635594 -0.1507446968
| 19> H -3.6620337347 -2.0159511612 -0.1278394168
| 20> H -3.412646907 -1.0591056355 1.3338018683
| 21> H -1.7856022976 -0.8297985087 -1.2460517247
| 22> H -1.2400805953 -1.6212233336 0.2374062893
| 23> H -1.3845414112 0.5274794473 1.4613650394
| 24> H -1.9683209673 1.3351333707 -0.0237916213
| 25> H 2.5402530323 1.1449262815 -0.0945745443
| 26> H 2.8377724959 0.1914391936 1.3951859732
| 27> H 2.4448958375 -1.9107839813 0.0866647598
| 28> H 2.1834847611 -0.9465290666 -1.3752080061
| 29> H 3.7764238655 -0.9715251703 -0.6078925317
| 30> *
| 31>
| 32>                          ****END OF INPUT****

CARTESIAN COORDINATES (ANGSTROEM)
---------------------------------
  C     -3.318198   -1.057491    0.251138
  C     -1.869830   -0.821699   -0.157193
  C     -1.356071    0.525721    0.372658
  C      0.063381    0.722884   -0.085390
  O      0.388243    1.278641   -1.114564
  O      0.927260    0.183339    0.764829
  C      2.325527    0.210575    0.432884
  C      2.707448   -0.987598   -0.422771
  H     -3.959333   -0.277264   -0.150745
  H     -3.662034   -2.015951   -0.127839
  H     -3.412647   -1.059106    1.333802
  H     -1.785602   -0.829799   -1.246052
  H     -1.240081   -1.621223    0.237406
  H     -1.384541    0.527479    1.461365
  H     -1.968321    1.335133   -0.023792
  H      2.540253    1.144926   -0.094575
  H      2.837772    0.191439    1.395186
  H      2.444896   -1.910784    0.086665
  H      2.183485   -0.946529   -1.375208
  H      3.776424   -0.971525   -0.607893

 Total Charge           Charge          ....    0
 Multiplicity           Mult            ....    1
 Number of Electrons    NEL             ....   64
 Basis Dimension        Dim             ....  222

ORBITAL ENERGIES
----------------

  NO   OCC          E(Eh)            E(eV)
   0   2.0000     -19.001854      -517.0667
   1   2.0000     -18.942713      -515.4574
   2   2.0000     -10.161516      -276.5089
   3   2.0000     -10.083082      -274.3746
   4   2.0000     -10.034631      -273.0562
   5   2.0000     -10.030495      -272.9436
   6   2.0000     -10.018275      -272.6111
   7   2.0000     -10.012017      -272.4408
   8   2.0000      -1.078319       -29.3425
   9   2.0000      -0.988225       -26.8910
  10   2.0000      -0.769823       -20.9479
  11   2.0000      -0.732510       -19.9326
  12   2.0000      -0.674143       -18.3444
  13   2.0000      -0.616089       -16.7646
  14   2.0000      -0.561291       -15.2735
  15   2.0000      -0.519906       -14.1474
  16   2.0000      -0.472428       -12.8554
  17   2.0000      -0.461293       -12.5524
  18   2.0000      -0.439279       -11.9534
  19   2.0000      -0.425008       -11.5651
  20   2.0000      -0.408013       -11.1026
  21   2.0000      -0.384121       -10.4525
  22   2.0000      -0.362961        -9.8767
  23   2.0000      -0.357464        -9.7271
  24   2.0000      -0.355684        -9.6787
  25   2.0000      -0.339786        -9.2461
  26   2.0000      -0.320116        -8.7108
  27   2.0000      -0.305772        -8.3205
  28   2.0000      -0.303712        -8.2644
  29   2.0000      -0.300642        -8.1809
  30   2.0000      -0.276933        -7.5357
  31   2.0000      -0.248819        -6.7707
  32   0.0000      -0.022504        -0.6124
  33   0.0000       0.079318         2.1584
  34   0.0000       0.098974         2.6932
  35   0.0000       0.112995         3.0747
  36   0.0000       0.130607         3.5540

MULLIKEN ATOMIC CHARGES
-----------------------
   0 C :   -0.517136
   1 C :   -0.219493
   2 C :   -0.369143
   3 C :    0.459678
   4 O :   -0.514984
   5 O :   -0.201709
   6 C :   -0.143614
   7 C :   -0.493283
   8 H :    0.159173
   9 H :    0.162427
  10 H :    0.158969
  11 H :    0.158299
  12 H :    0.156725
  13 H :    0.177552
  14 H :    0.176560
  15 H :    0.171595
  16 H :    0.173724
  17 H :    0.165993
  18 H :    0.168044
  19 H :    0.170624
Sum of atomic charges:    0.0000000

LOEWDIN ATOMIC CHARGES
----------------------
   0 C :   -0.424654
   1 C :   -0.285287
   2 C :   -0.227414
   3 C :    0.364667
   4 O :   -0.494756
   5 O :   -0.598444
   6 C :    0.031926
   7 C :   -0.393635
   8 H :    0.154880
   9 H :    0.156401
  10 H :    0.154902
  11 H :    0.161551
  12 H :    0.161560
  13 H :    0.185305
  14 H :    0.182473
  15 H :    0.189612
  16 H :    0.188843
  17 H :    0.161857
  18 H :    0.162455
  19 H :    0.167759

  Mayer bond orders larger than 0.100000
B(  0-C ,  1-C ) :   0.8878 B(  0-C ,  8-H ) :   0.9815 B(  0-C ,  9-H ) :   0.9688
B(  0-C , 10-H ) :   0.9820 B(  1-C ,  2-C ) :   0.9116 B(  1-C , 11-H ) :   0.9594
B(  1-C , 12-H ) :   0.9572 B(  2-C ,  3-C ) :   0.9613 B(  2-C , 13-H ) :   0.9690
B(  2-C , 14-H ) :   0.9767 B(  3-C ,  4-O ) :   1.7752 B(  3-C ,  5-O ) :   1.0545
B(  5-O ,  6-C ) :   0.7993 B(  6-C ,  7-C ) :   0.9316 B(  6-C , 15-H ) :   0.9638
B(  6-C , 16-H ) :   0.9530 B(  7-C , 17-H ) :   0.9697 B(  7-C , 18-H ) :   0.9692
B(  7-C , 19-H ) :   0.9604

Dispersion correction           -0.005031676
FINAL SINGLE POINT ENERGY      -386.240906124187

DIPOLE MOMENT
-------------

Method             : SCF
Type of density    : Electron Density
Multiplicity       :   1
Irrep              :   0
Energy             :  -386.2475303974720759 Eh
Relativity type    :
Basis              : AO
                                X                 Y                 Z
Electronic contribution:      3.470580541       5.241743972       0.061383064
Nuclear contribution   :     -3.385784754      -6.013737515       0.828207617
                        -----------------------------------------
Total Dipole Moment    :      0.084795787      -0.771993544       0.889590681
                        -----------------------------------------
Magnitude (a.u.)       :      1.180904711
Magnitude (Debye)      :      3.001621233

Rotational constants in cm-1:             0.131092             0.033359             0.030755
Rotational constants in MHz :          3930.042160          1000.062911           922.001086

                             ****ORCA TERMINATED NORMALLY****
TOTAL RUN TIME: 0 days 0 hours 0 minutes 36 seconds 890 msec
