                         Program Version 6.0.0  -   RELEASE  -
|  1> ! pbe def2-sv(p) def2/J RI DEFGRID1 loosescf d4 GCP(DFT/SV(P)) printgap
|  2> %output
|  3>     printlevel normal
|  4> end
|  5> * xyz 0 1
|  6> C -3.539365821 -1.1816506872 -1.3735009625
|  7> C -3.1367632123 -0.64863684 0.002901367
|  8> H -3.5611440728 -1.2941692485 0.7778833691
|  9> C -1.6271815496 -0.6250102663 0.1466466976
| 10> C -0.9849209337 -1.573390066 0.9638510419
| 11> C 0.3770587385 -1.5903243103 1.0787597152
| 12> C 1.1741442066 -0.6562895897 0.3862121488
| 13> C 2.5807027497 -0.6564163344 0.4931227977
| 14> C 3.3283901402 0.264951262 -0.1963794901
| 15> C 2.6853155326 1.2216283858 -1.0180481235
| 16> C 1.3290620012 1.2384679325 -1.1335643781
| 17> C 0.5313361543 0.3025251379 -0.4378865756
| 18> C -0.871757567 0.2928386548 -0.539579191
| 19> O 4.6876061345 0.3586288211 -0.1710589972
| 20> C 5.4129501784 -0.5597573223 0.6240691096
| 21> C -3.6420901415 0.7684818949 0.2038259011
| 22> O -3.9255808773 1.5198509194 -0.6994355935
| 23> O -3.7297489243 1.1887907961 1.4652526245
| 24> H -3.1033100881 -2.163701977 -1.532851251
| 25> H -4.6215508061 -1.2525014009 -1.4481430871
| 26> H -3.1884914471 -0.5076289513 -2.1502944001
| 27> H -1.5790210782 -2.3012961801 1.496228472
| 28> H 0.8609166815 -2.3250174644 1.7049209912
| 29> H 3.0406994168 -1.3974747731 1.1273485272
| 30> H 3.3087008053 1.9282457948 -1.5427976962
| 31> H 0.8427713241 1.9704389404 -1.7610185607
| 32> H -1.3519567492 1.0291002197 -1.1692383824
| 33> H 5.1451768017 -0.4631169893 1.6793735833
| 34> H 6.4588897226 -0.2962347518 0.4854271143
| 35> H 5.2443108746 -1.5870168791 0.2909092608
| 36> H -3.4882062495 0.5186194798 2.1294262664
| 37> *
| 38>
| 39>                          ****END OF INPUT****

CARTESIAN COORDINATES (ANGSTROEM)
---------------------------------
  C     -3.539366   -1.181651   -1.373501
  C     -3.136763   -0.648637    0.002901
  H     -3.561144   -1.294169    0.777883
  C     -1.627182   -0.625010    0.146647
  C     -0.984921   -1.573390    0.963851
  C      0.377059   -1.590324    1.078760
  C      1.174144   -0.656290    0.386212
  C      2.580703   -0.656416    0.493123
  C      3.328390    0.264951   -0.196379
  C      2.685316    1.221628   -1.018048
  C      1.329062    1.238468   -1.133564
  C      0.531336    0.302525   -0.437887
  C     -0.871758    0.292839   -0.539579
  O      4.687606    0.358629   -0.171059
  C      5.412950   -0.559757    0.624069
  C     -3.642090    0.768482    0.203826
  O     -3.925581    1.519851   -0.699436
  O     -3.729749    1.188791    1.465253
  H     -3.103310   -2.163702   -1.532851
  H     -4.621551   -1.252501   -1.448143
  H     -3.188491   -0.507629   -2.150294
  H     -1.579021   -2.301296    1.496228
  H      0.860917   -2.325017    1.704921
  H      3.040699   -1.397475    1.127349
  H      3.308701    1.928246   -1.542798
  H      0.842771    1.970439   -1.761019
  H     -1.351957    1.029100   -1.169238
  H      5.145177   -0.463117    1.679374
  H      6.458890   -0.296235    0.485427
  H      5.244311   -1.587017    0.290909
  H     -3.488206    0.518619    2.129426

 Total Charge           Charge          ....    0
 Multiplicity           Mult            ....    1
 Number of Electrons    NEL             ....  122
 Basis Dimension        Dim             ....  266

ORBITAL ENERGIES
----------------

  NO   OCC          E(Eh)            E(eV)
   0   2.0000     -18.797739      -511.5125
   1   2.0000     -18.796305      -511.4735
   2   2.0000     -18.731919      -509.7214
   3   2.0000     -10.011010      -272.4134
   4   2.0000      -9.958219      -270.9769
   5   2.0000      -9.946280      -270.6520
   6   2.0000      -9.919892      -269.9340
   7   2.0000      -9.910826      -269.6873
   8   2.0000      -9.907456      -269.5956
   9   2.0000      -9.902769      -269.4681
  10   2.0000      -9.900555      -269.4078
  11   2.0000      -9.898523      -269.3525
  12   2.0000      -9.898144      -269.3422
  13   2.0000      -9.896090      -269.2863
  14   2.0000      -9.894689      -269.2482
  15   2.0000      -9.894059      -269.2310
  16   2.0000      -9.882320      -268.9116
  17   2.0000      -1.001833       -27.2613
  18   2.0000      -0.976113       -26.5614
  19   2.0000      -0.913555       -24.8591
  20   2.0000      -0.801137       -21.8000
  21   2.0000      -0.761848       -20.7310
  22   2.0000      -0.722336       -19.6558
  23   2.0000      -0.698844       -19.0165
  24   2.0000      -0.676638       -18.4123
  25   2.0000      -0.652385       -17.7523
  26   2.0000      -0.630978       -17.1698
  27   2.0000      -0.593269       -16.1437
  28   2.0000      -0.568706       -15.4753
  29   2.0000      -0.562773       -15.3138
  30   2.0000      -0.545584       -14.8461
  31   2.0000      -0.536111       -14.5883
  32   2.0000      -0.489633       -13.3236
  33   2.0000      -0.475177       -12.9302
  34   2.0000      -0.467739       -12.7278
  35   2.0000      -0.450169       -12.2497
  36   2.0000      -0.427585       -11.6352
  37   2.0000      -0.424460       -11.5502
  38   2.0000      -0.407708       -11.0943
  39   2.0000      -0.403662       -10.9842
  40   2.0000      -0.400322       -10.8933
  41   2.0000      -0.389501       -10.5989
  42   2.0000      -0.381528       -10.3819
  43   2.0000      -0.375030       -10.2051
  44   2.0000      -0.368112       -10.0168
  45   2.0000      -0.362957        -9.8766
  46   2.0000      -0.359830        -9.7915
  47   2.0000      -0.348141        -9.4734
  48   2.0000      -0.335992        -9.1428
  49   2.0000      -0.328263        -8.9325
  50   2.0000      -0.318743        -8.6734
  51   2.0000      -0.309470        -8.4211
  52   2.0000      -0.306694        -8.3456
  53   2.0000      -0.298622        -8.1259
  54   2.0000      -0.286575        -7.7981
  55   2.0000      -0.274077        -7.4580
  56   2.0000      -0.268977        -7.3192
  57   2.0000      -0.255957        -6.9649
  58   2.0000      -0.218756        -5.9527
  59   2.0000      -0.214624        -5.8402
  60   2.0000      -0.190127        -5.1736
  61   0.0000      -0.070861        -1.9282
  62   0.0000      -0.043246        -1.1768
  63   0.0000      -0.017958        -0.4887
  64   0.0000      -0.009636        -0.2622
  65   0.0000       0.010299         0.2803

MULLIKEN ATOMIC CHARGES
-----------------------
   0 C :   -0.209508
   1 C :   -0.194351
   2 H :    0.060862
   3 C :    0.094807
   4 C :   -0.110852
   5 C :   -0.130554
   6 C :    0.174618
   7 C :   -0.301630
   8 C :    0.295338
   9 C :   -0.091980
  10 C :   -0.126294
  11 C :    0.181985
  12 C :   -0.210163
  13 O :   -0.266268
  14 C :   -0.114425
  15 C :    0.154691
  16 O :   -0.178968
  17 O :   -0.280935
  18 H :    0.102464
  19 H :    0.108040
  20 H :    0.122308
  21 H :    0.033701
  22 H :    0.033875
  23 H :    0.024415
  24 H :    0.049565
  25 H :    0.048521
  26 H :    0.058000
  27 H :    0.112524
  28 H :    0.128270
  29 H :    0.112688
  30 H :    0.319256
Sum of atomic charges:   -0.0000000

LOEWDIN ATOMIC CHARGES
----------------------
   0 C :   -0.316373
   1 C :   -0.173880
   2 H :    0.121637
   3 C :   -0.047402
   4 C :   -0.130832
   5 C :   -0.114818
   6 C :   -0.017313
   7 C :   -0.174485
   8 C :    0.030736
   9 C :   -0.130024
  10 C :   -0.101746
  11 C :   -0.032090
  12 C :   -0.103130
  13 O :   -0.087109
  14 C :   -0.201686
  15 C :    0.038849
  16 O :   -0.147729
  17 O :   -0.199891
  18 H :    0.122803
  19 H :    0.124087
  20 H :    0.130742
  21 H :    0.120066
  22 H :    0.122784
  23 H :    0.125870
  24 H :    0.132920
  25 H :    0.129495
  26 H :    0.132391
  27 H :    0.111006
  28 H :    0.123905
  29 H :    0.111058
  30 H :    0.300160

  Mayer bond orders larger than 0.100000
B(  0-C ,  1-C ) :   1.1044 B(  0-C , 18-H ) :   0.9442 B(  0-C , 19-H ) :   0.9479
B(  0-C , 20-H ) :   0.9388 B(  1-C ,  2-H ) :   0.8675 B(  1-C ,  3-C ) :   0.9898
B(  1-C , 15-C ) :   0.9394 B(  3-C ,  4-C ) :   1.2758 B(  3-C , 12-C ) :   1.4240
B(  4-C ,  5-C ) :   1.4372 B(  4-C , 21-H ) :   0.9620 B(  5-C ,  6-C ) :   1.2399
B(  5-C , 22-H ) :   0.9637 B(  6-C ,  7-C ) :   1.2003 B(  6-C , 11-C ) :   1.2501
B(  7-C ,  8-C ) :   1.3359 B(  7-C , 23-H ) :   0.9643 B(  8-C ,  9-C ) :   1.2408
B(  8-C , 13-O ) :   1.1436 B(  9-C , 10-C ) :   1.4610 B(  9-C , 24-H ) :   0.9619
B( 10-C , 11-C ) :   1.2036 B( 10-C , 25-H ) :   0.9680 B( 11-C , 12-C ) :   1.2263
B( 12-C , 26-H ) :   0.9508 B( 13-O , 14-C ) :   0.9866 B( 14-C , 27-H ) :   0.9415
B( 14-C , 28-H ) :   0.9583 B( 14-C , 29-H ) :   0.9414 B( 15-C , 16-O ) :   2.1045
B( 15-C , 17-O ) :   1.2354 B( 17-O , 30-H ) :   0.8251

Dispersion correction           -0.039087835
FINAL SINGLE POINT ENERGY      -765.989088362630

DIPOLE MOMENT
-------------

Method             : SCF
Type of density    : Electron Density
Multiplicity       :   1
Irrep              :   0
Energy             :  -766.0827837406757226 Eh
Relativity type    :
Basis              : AO
                                X                 Y                 Z
Electronic contribution:     -2.662993487       6.156224490       0.899929924
Nuclear contribution   :      3.716028067      -7.592922163       0.090593956
                        -----------------------------------------
Total Dipole Moment    :      1.053034580      -1.436697673       0.990523880
                        -----------------------------------------
Magnitude (a.u.)       :      2.038165741
Magnitude (Debye)      :      5.180605604

Rotational constants in cm-1:             0.041616             0.007289             0.006835
Rotational constants in MHz :          1247.623745           218.514657           204.918520

                             ****ORCA TERMINATED NORMALLY****
TOTAL RUN TIME: 0 days 0 hours 0 minutes 28 seconds 565 msec
