                         Program Version 6.0.0  -   RELEASE  -
|  1> ! r2scan-3c def2/J RI DEFGRID2 scfconv6 printgap
|  2> %output
|  3>     printlevel normal
|  4> end
|  5> * xyz 0 1
|  6> C 1.4482603855 0.218579576 -1.3165848388
|  7> C 1.1020868051 0.2677854738 0.1795545099
|  8> C 2.3280221677 -0.1426744528 1.0000328499
|  9> N 0.0031378018 -0.5869090721 0.5968490391
| 10> C -1.3803860426 -0.282070755 0.2557371018
| 11> C -1.79911616 -0.6391158823 -1.1802530559
| 12> C -1.7333801041 1.1702373962 0.5668395145
| 13> H 0.6697489136 0.6755755383 -1.9208856935
| 14> H 2.3753852094 0.7566440356 -1.4980383143
| 15> H 1.5789427998 -0.8128757494 -1.6394177863
| 16> H 0.8387412094 1.294846506 0.4489519287
| 17> H 3.1493441874 0.546951194 0.8265069594
| 18> H 2.6486629971 -1.1440465334 0.721280353
| 19> H 2.0818535168 -0.1410026267 2.0576210367
| 20> H 0.2070399018 -1.5475841234 0.3425067862
| 21> H -1.9689255506 -0.9218988942 0.9303628942
| 22> H -1.4678841658 -1.6442437692 -1.4343254896
| 23> H -2.8825809386 -0.6039470357 -1.2642043209
| 24> H -1.3804978145 0.0573078328 -1.9015691715
| 25> H -2.8118225373 1.2972018574 0.5271634759
| 26> H -1.2839361278 1.8455933489 -0.1573350561
| 27> H -1.3863915002 1.4340896638 1.5619806717
| 28> *
| 29>
| 30>                          ****END OF INPUT****

CARTESIAN COORDINATES (ANGSTROEM)
---------------------------------
  C      1.448260    0.218580   -1.316585
  C      1.102087    0.267785    0.179555
  C      2.328022   -0.142674    1.000033
  N      0.003138   -0.586909    0.596849
  C     -1.380386   -0.282071    0.255737
  C     -1.799116   -0.639116   -1.180253
  C     -1.733380    1.170237    0.566840
  H      0.669749    0.675576   -1.920886
  H      2.375385    0.756644   -1.498038
  H      1.578943   -0.812876   -1.639418
  H      0.838741    1.294847    0.448952
  H      3.149344    0.546951    0.826507
  H      2.648663   -1.144047    0.721280
  H      2.081854   -0.141003    2.057621
  H      0.207040   -1.547584    0.342507
  H     -1.968926   -0.921899    0.930363
  H     -1.467884   -1.644244   -1.434325
  H     -2.882581   -0.603947   -1.264204
  H     -1.380498    0.057308   -1.901569
  H     -2.811823    1.297202    0.527163
  H     -1.283936    1.845593   -0.157335
  H     -1.386392    1.434090    1.561981

 Total Charge           Charge          ....    0
 Multiplicity           Mult            ....    1
 Number of Electrons    NEL             ....   58
 Basis Dimension        Dim             ....  213

ORBITAL ENERGIES
----------------

  NO   OCC          E(Eh)            E(eV)
   0   2.0000     -14.130295      -384.5049
   1   2.0000     -10.056340      -273.6469
   2   2.0000     -10.054045      -273.5845
   3   2.0000     -10.015332      -272.5310
   4   2.0000     -10.012271      -272.4477
   5   2.0000     -10.011892      -272.4374
   6   2.0000     -10.009699      -272.3777
   7   2.0000      -0.867800       -23.6140
   8   2.0000      -0.749650       -20.3990
   9   2.0000      -0.695912       -18.9367
  10   2.0000      -0.652229       -17.7480
  11   2.0000      -0.645334       -17.5604
  12   2.0000      -0.565052       -15.3759
  13   2.0000      -0.524359       -14.2685
  14   2.0000      -0.454072       -12.3559
  15   2.0000      -0.428648       -11.6641
  16   2.0000      -0.411482       -11.1970
  17   2.0000      -0.396281       -10.7834
  18   2.0000      -0.379642       -10.3306
  19   2.0000      -0.366155        -9.9636
  20   2.0000      -0.355808        -9.6820
  21   2.0000      -0.352450        -9.5907
  22   2.0000      -0.345326        -9.3968
  23   2.0000      -0.327921        -8.9232
  24   2.0000      -0.315668        -8.5898
  25   2.0000      -0.304110        -8.2752
  26   2.0000      -0.294895        -8.0245
  27   2.0000      -0.286316        -7.7910
  28   2.0000      -0.177659        -4.8343
  29   0.0000       0.073791         2.0080
  30   0.0000       0.100342         2.7304
  31   0.0000       0.119080         3.2403
  32   0.0000       0.120977         3.2920
  33   0.0000       0.132906         3.6166

MULLIKEN ATOMIC CHARGES
-----------------------
   0 C :   -0.436673
   1 C :   -0.116759
   2 C :   -0.470070
   3 N :   -0.227106
   4 C :   -0.065571
   5 C :   -0.455005
   6 C :   -0.498002
   7 H :    0.138084
   8 H :    0.141993
   9 H :    0.146788
  10 H :    0.148719
  11 H :    0.141083
  12 H :    0.138401
  13 H :    0.162436
  14 H :    0.212399
  15 H :    0.155696
  16 H :    0.138570
  17 H :    0.142869
  18 H :    0.140704
  19 H :    0.146772
  20 H :    0.151786
  21 H :    0.162885
Sum of atomic charges:   -0.0000000

LOEWDIN ATOMIC CHARGES
----------------------
   0 C :   -0.406006
   1 C :   -0.018248
   2 C :   -0.385357
   3 N :   -0.830626
   4 C :   -0.019692
   5 C :   -0.407502
   6 C :   -0.389182
   7 H :    0.150335
   8 H :    0.153361
   9 H :    0.154198
  10 H :    0.178750
  11 H :    0.151099
  12 H :    0.152320
  13 H :    0.162398
  14 H :    0.249255
  15 H :    0.177029
  16 H :    0.152231
  17 H :    0.153108
  18 H :    0.151139
  19 H :    0.156693
  20 H :    0.152476
  21 H :    0.162220

  Mayer bond orders larger than 0.100000
B(  0-C ,  1-C ) :   0.8568 B(  0-C ,  7-H ) :   0.9680 B(  0-C ,  8-H ) :   0.9719
B(  0-C ,  9-H ) :   0.9804 B(  1-C ,  2-C ) :   0.9694 B(  1-C ,  3-N ) :   0.9340
B(  1-C , 10-H ) :   0.9619 B(  2-C , 11-H ) :   0.9793 B(  2-C , 12-H ) :   0.9727
B(  2-C , 13-H ) :   0.9737 B(  3-N ,  4-C ) :   0.9721 B(  3-N , 14-H ) :   0.9177
B(  4-C ,  5-C ) :   0.9096 B(  4-C ,  6-C ) :   0.9110 B(  4-C , 15-H ) :   0.9740
B(  5-C , 16-H ) :   0.9736 B(  5-C , 17-H ) :   0.9687 B(  5-C , 18-H ) :   0.9729
B(  6-C , 19-H ) :   0.9668 B(  6-C , 20-H ) :   0.9756 B(  6-C , 21-H ) :   0.9720

Dispersion correction           -0.006169307
FINAL SINGLE POINT ENERGY      -292.314206122949

DIPOLE MOMENT
-------------

Method             : SCF
Type of density    : Electron Density
Multiplicity       :   1
Irrep              :   0
Energy             :  -292.3225595874868077 Eh
Relativity type    :
Basis              : AO
                                X                 Y                 Z
Electronic contribution:     -0.395806040      -1.046200887       1.989506349
Nuclear contribution   :      0.344960832       1.021839492      -2.247767002
                        -----------------------------------------
Total Dipole Moment    :     -0.050845209      -0.024361395      -0.258260653
                        -----------------------------------------
Magnitude (a.u.)       :      0.264343106
Magnitude (Debye)      :      0.671906778

Rotational constants in cm-1:             0.129934             0.054585             0.048249
Rotational constants in MHz :          3895.313334          1636.428418          1446.466620

                             ****ORCA TERMINATED NORMALLY****
TOTAL RUN TIME: 0 days 0 hours 0 minutes 25 seconds 952 msec
