                         Program Version 6.0.0  -   RELEASE  -
|  1> ! r2scan-3c def2/J RI DEFGRID2 scfconv6 printgap
|  2> %output
|  3>     printlevel normal
|  4> end
|  5> %cpcm
|  6>     smd true
|  7>     smdsolvent "water"
|  8> end
|  9> * xyz 0 1
| 10> C 1.4482603855 0.218579576 -1.3165848388
| 11> C 1.1020868051 0.2677854738 0.1795545099
| 12> C 2.3280221677 -0.1426744528 1.0000328499
| 13> N 0.0031378018 -0.5869090721 0.5968490391
| 14> C -1.3803860426 -0.282070755 0.2557371018
| 15> C -1.79911616 -0.6391158823 -1.1802530559
| 16> C -1.7333801041 1.1702373962 0.5668395145
| 17> H 0.6697489136 0.6755755383 -1.9208856935
| 18> H 2.3753852094 0.7566440356 -1.4980383143
| 19> H 1.5789427998 -0.8128757494 -1.6394177863
| 20> H 0.8387412094 1.294846506 0.4489519287
| 21> H 3.1493441874 0.546951194 0.8265069594
| 22> H 2.6486629971 -1.1440465334 0.721280353
| 23> H 2.0818535168 -0.1410026267 2.0576210367
| 24> H 0.2070399018 -1.5475841234 0.3425067862
| 25> H -1.9689255506 -0.9218988942 0.9303628942
| 26> H -1.4678841658 -1.6442437692 -1.4343254896
| 27> H -2.8825809386 -0.6039470357 -1.2642043209
| 28> H -1.3804978145 0.0573078328 -1.9015691715
| 29> H -2.8118225373 1.2972018574 0.5271634759
| 30> H -1.2839361278 1.8455933489 -0.1573350561
| 31> H -1.3863915002 1.4340896638 1.5619806717
| 32> *
| 33>
| 34>                          ****END OF INPUT****

CARTESIAN COORDINATES (ANGSTROEM)
---------------------------------
  C      1.448260    0.218580   -1.316585
  C      1.102087    0.267785    0.179555
  C      2.328022   -0.142674    1.000033
  N      0.003138   -0.586909    0.596849
  C     -1.380386   -0.282071    0.255737
  C     -1.799116   -0.639116   -1.180253
  C     -1.733380    1.170237    0.566840
  H      0.669749    0.675576   -1.920886
  H      2.375385    0.756644   -1.498038
  H      1.578943   -0.812876   -1.639418
  H      0.838741    1.294847    0.448952
  H      3.149344    0.546951    0.826507
  H      2.648663   -1.144047    0.721280
  H      2.081854   -0.141003    2.057621
  H      0.207040   -1.547584    0.342507
  H     -1.968926   -0.921899    0.930363
  H     -1.467884   -1.644244   -1.434325
  H     -2.882581   -0.603947   -1.264204
  H     -1.380498    0.057308   -1.901569
  H     -2.811823    1.297202    0.527163
  H     -1.283936    1.845593   -0.157335
  H     -1.386392    1.434090    1.561981

 Total Charge           Charge          ....    0
 Multiplicity           Mult            ....    1
 Number of Electrons    NEL             ....   58
 Basis Dimension        Dim             ....  213

ORBITAL ENERGIES
----------------

  NO   OCC          E(Eh)            E(eV)
   0   2.0000     -14.126657      -384.4059
   1   2.0000     -10.049805      -273.4691
   2   2.0000     -10.047631      -273.4099
   3   2.0000     -10.007563      -272.3196
   4   2.0000     -10.004843      -272.2456
   5   2.0000     -10.003125      -272.1989
   6   2.0000     -10.003121      -272.1988
   7   2.0000      -0.862660       -23.4742
   8   2.0000      -0.742983       -20.2176
   9   2.0000      -0.689064       -18.7504
  10   2.0000      -0.644820       -17.5464
  11   2.0000      -0.639065       -17.3898
  12   2.0000      -0.559002       -15.2112
  13   2.0000      -0.517351       -14.0778
  14   2.0000      -0.447206       -12.1691
  15   2.0000      -0.421709       -11.4753
  16   2.0000      -0.405838       -11.0434
  17   2.0000      -0.389527       -10.5996
  18   2.0000      -0.371959       -10.1215
  19   2.0000      -0.358867        -9.7653
  20   2.0000      -0.347834        -9.4650
  21   2.0000      -0.345515        -9.4019
  22   2.0000      -0.337145        -9.1742
  23   2.0000      -0.321329        -8.7438
  24   2.0000      -0.310050        -8.4369
  25   2.0000      -0.297112        -8.0848
  26   2.0000      -0.287338        -7.8189
  27   2.0000      -0.279296        -7.6000
  28   2.0000      -0.176767        -4.8101
  29   0.0000       0.082917         2.2563
  30   0.0000       0.110926         3.0185
  31   0.0000       0.126759         3.4493
  32   0.0000       0.128491         3.4964
  33   0.0000       0.139362         3.7922

MULLIKEN ATOMIC CHARGES
-----------------------
   0 C :   -0.501772
   1 C :   -0.074739
   2 C :   -0.519562
   3 N :   -0.303368
   4 C :   -0.042394
   5 C :   -0.515772
   6 C :   -0.526904
   7 H :    0.155534
   8 H :    0.153277
   9 H :    0.163279
  10 H :    0.159985
  11 H :    0.157093
  12 H :    0.158351
  13 H :    0.157661
  14 H :    0.261908
  15 H :    0.159231
  16 H :    0.155284
  17 H :    0.154452
  18 H :    0.157386
  19 H :    0.162044
  20 H :    0.167771
  21 H :    0.161257
Sum of atomic charges:   -0.0000000

LOEWDIN ATOMIC CHARGES
----------------------
   0 C :   -0.413354
   1 C :   -0.016536
   2 C :   -0.395532
   3 N :   -0.848986
   4 C :   -0.019122
   5 C :   -0.415127
   6 C :   -0.396646
   7 H :    0.154798
   8 H :    0.156095
   9 H :    0.158107
  10 H :    0.181532
  11 H :    0.155840
  12 H :    0.157392
  13 H :    0.158239
  14 H :    0.259113
  15 H :    0.177947
  16 H :    0.156458
  17 H :    0.156084
  18 H :    0.154987
  19 H :    0.160495
  20 H :    0.157687
  21 H :    0.160529

  Mayer bond orders larger than 0.100000
B(  0-C ,  1-C ) :   0.8440 B(  0-C ,  7-H ) :   0.9663 B(  0-C ,  8-H ) :   0.9697
B(  0-C ,  9-H ) :   0.9806 B(  1-C ,  2-C ) :   0.9450 B(  1-C ,  3-N ) :   0.9415
B(  1-C , 10-H ) :   0.9625 B(  2-C , 11-H ) :   0.9752 B(  2-C , 12-H ) :   0.9731
B(  2-C , 13-H ) :   0.9744 B(  3-N ,  4-C ) :   0.9804 B(  3-N , 14-H ) :   0.9030
B(  4-C ,  5-C ) :   0.9017 B(  4-C ,  6-C ) :   0.9042 B(  4-C , 15-H ) :   0.9721
B(  5-C , 16-H ) :   0.9716 B(  5-C , 17-H ) :   0.9661 B(  5-C , 18-H ) :   0.9734
B(  6-C , 19-H ) :   0.9655 B(  6-C , 20-H ) :   0.9717 B(  6-C , 21-H ) :   0.9684

Dispersion correction           -0.006169307
FINAL SINGLE POINT ENERGY      -292.316888658524

DIPOLE MOMENT
-------------

Method             : SCF
Type of density    : Electron Density
Multiplicity       :   1
Irrep              :   0
Energy             :  -292.3252421230619689 Eh
Relativity type    :
Basis              : AO
                                X                 Y                 Z
Electronic contribution:     -0.396287648      -1.065460874       1.792783968
Nuclear contribution   :      0.344960832       1.021839492      -2.247767002
                        -----------------------------------------
Total Dipole Moment    :     -0.051326816      -0.043621381      -0.454983034
                        -----------------------------------------
Magnitude (a.u.)       :      0.459942201
Magnitude (Debye)      :      1.169080166

Rotational constants in cm-1:             0.129934             0.054585             0.048249
Rotational constants in MHz :          3895.313334          1636.428418          1446.466620

                             ****ORCA TERMINATED NORMALLY****
TOTAL RUN TIME: 0 days 0 hours 0 minutes 30 seconds 244 msec
