                         Program Version 6.0.0  -   RELEASE  -
|  1> ! pbe def2-sv(p) def2/J RI DEFGRID1 loosescf d4 GCP(DFT/SV(P)) printgap
|  2> %output
|  3>     printlevel normal
|  4> end
|  5> * xyz 0 1
|  6> C 2.1442004405 -0.8640365989 0.6001580712
|  7> C 1.6938976156 -0.129135333 -0.657214956
|  8> C 1.179777138 1.2832647431 -0.3750511711
|  9> C -0.0820230679 1.3640132074 0.4875838597
| 10> C -1.3340385127 0.8039313018 -0.1701791681
| 11> Cl -1.4880562475 -0.9804223044 0.0326385147
| 12> H 2.8640481824 -0.2665475835 1.1553718707
| 13> H 2.6125159793 -1.8092552147 0.335580332
| 14> H 1.2987850129 -1.0810888178 1.2480471042
| 15> H 2.5418273852 -0.0493167828 -1.3417647217
| 16> H 0.9223120679 -0.7131028822 -1.160073389
| 17> H 0.98155717 1.7790600956 -1.3279805308
| 18> H 1.9694024723 1.8434311759 0.130567215
| 19> H -0.2786722267 2.4186625735 0.6923648923
| 20> H 0.0821389521 0.8694786558 1.4446982614
| 21> H -2.2329801607 1.2150727321 0.2851823103
| 22> H -1.3406800172 0.9879960678 -1.2431533329
| 23> *
| 24>
| 25>                          ****END OF INPUT****

CARTESIAN COORDINATES (ANGSTROEM)
---------------------------------
  C      2.144200   -0.864037    0.600158
  C      1.693898   -0.129135   -0.657215
  C      1.179777    1.283265   -0.375051
  C     -0.082023    1.364013    0.487584
  C     -1.334039    0.803931   -0.170179
  Cl    -1.488056   -0.980422    0.032639
  H      2.864048   -0.266548    1.155372
  H      2.612516   -1.809255    0.335580
  H      1.298785   -1.081089    1.248047
  H      2.541827   -0.049317   -1.341765
  H      0.922312   -0.713103   -1.160073
  H      0.981557    1.779060   -1.327981
  H      1.969402    1.843431    0.130567
  H     -0.278672    2.418663    0.692365
  H      0.082139    0.869479    1.444698
  H     -2.232980    1.215073    0.285182
  H     -1.340680    0.987996   -1.243153

 Total Charge           Charge          ....    0
 Multiplicity           Mult            ....    1
 Number of Electrons    NEL             ....   58
 Basis Dimension        Dim             ....  110

ORBITAL ENERGIES
----------------

  NO   OCC          E(Eh)            E(eV)
   0   2.0000    -100.619056     -2737.9837
   1   2.0000      -9.940659      -270.4991
   2   2.0000      -9.895668      -269.2748
   3   2.0000      -9.886156      -269.0160
   4   2.0000      -9.877317      -268.7755
   5   2.0000      -9.866551      -268.4825
   6   2.0000      -9.154511      -249.1069
   7   2.0000      -6.986025      -190.0994
   8   2.0000      -6.974247      -189.7789
   9   2.0000      -6.974124      -189.7756
  10   2.0000      -0.776793       -21.1376
  11   2.0000      -0.716154       -19.4875
  12   2.0000      -0.664153       -18.0725
  13   2.0000      -0.599171       -16.3043
  14   2.0000      -0.549064       -14.9408
  15   2.0000      -0.497512       -13.5380
  16   2.0000      -0.434082       -11.8120
  17   2.0000      -0.422416       -11.4945
  18   2.0000      -0.387673       -10.5491
  19   2.0000      -0.381618       -10.3844
  20   2.0000      -0.368728       -10.0336
  21   2.0000      -0.334536        -9.1032
  22   2.0000      -0.327540        -8.9128
  23   2.0000      -0.325101        -8.8464
  24   2.0000      -0.290196        -7.8966
  25   2.0000      -0.282675        -7.6920
  26   2.0000      -0.281092        -7.6489
  27   2.0000      -0.245141        -6.6706
  28   2.0000      -0.239994        -6.5306
  29   0.0000       0.007571         0.2060
  30   0.0000       0.035144         0.9563
  31   0.0000       0.060184         1.6377
  32   0.0000       0.066318         1.8046
  33   0.0000       0.083327         2.2674

MULLIKEN ATOMIC CHARGES
-----------------------
   0 C :   -0.291712
   1 C :   -0.180449
   2 C :   -0.170106
   3 C :   -0.158546
   4 C :   -0.173046
   5 Cl:   -0.147052
   6 H :    0.091961
   7 H :    0.101951
   8 H :    0.107124
   9 H :    0.082391
  10 H :    0.094107
  11 H :    0.081353
  12 H :    0.084544
  13 H :    0.093801
  14 H :    0.110617
  15 H :    0.137563
  16 H :    0.135498
Sum of atomic charges:   -0.0000000

LOEWDIN ATOMIC CHARGES
----------------------
   0 C :   -0.345542
   1 C :   -0.243632
   2 C :   -0.226536
   3 C :   -0.249726
   4 C :   -0.268429
   5 Cl:    0.032641
   6 H :    0.113671
   7 H :    0.120370
   8 H :    0.113082
   9 H :    0.114624
  10 H :    0.109536
  11 H :    0.113275
  12 H :    0.115934
  13 H :    0.126730
  14 H :    0.124535
  15 H :    0.125570
  16 H :    0.123900

  Mayer bond orders larger than 0.100000
B(  0-C ,  1-C ) :   1.1504 B(  0-C ,  6-H ) :   0.9549 B(  0-C ,  7-H ) :   0.9516
B(  0-C ,  8-H ) :   0.9442 B(  1-C ,  2-C ) :   1.1303 B(  1-C ,  9-H ) :   0.9241
B(  1-C , 10-H ) :   0.9149 B(  2-C ,  3-C ) :   1.1270 B(  2-C , 11-H ) :   0.9219
B(  2-C , 12-H ) :   0.9217 B(  3-C ,  4-C ) :   1.0899 B(  3-C , 13-H ) :   0.9072
B(  3-C , 14-H ) :   0.9157 B(  4-C ,  5-Cl) :   1.0272 B(  4-C , 15-H ) :   0.9334
B(  4-C , 16-H ) :   0.9284

Dispersion correction           -0.014099533
FINAL SINGLE POINT ENERGY      -656.510421707045

DIPOLE MOMENT
-------------

Method             : SCF
Type of density    : Electron Density
Multiplicity       :   1
Irrep              :   0
Energy             :  -656.5678236715244793 Eh
Relativity type    :
Basis              : AO
                                X                 Y                 Z
Electronic contribution:    -10.776973779      -5.501996944      -0.215447521
Nuclear contribution   :     10.835061744       6.189140584       0.161501037
                        -----------------------------------------
Total Dipole Moment    :      0.058087964       0.687143640      -0.053946484
                        -----------------------------------------
Magnitude (a.u.)       :      0.691701392
Magnitude (Debye)      :      1.758165216

Rotational constants in cm-1:             0.123673             0.061804             0.047230
Rotational constants in MHz :          3707.612872          1852.841890          1415.915835

                             ****ORCA TERMINATED NORMALLY****
TOTAL RUN TIME: 0 days 0 hours 0 minutes 7 seconds 371 msec
