                         Program Version 6.0.0  -   RELEASE  -
|  1> ! r2scan-3c def2/J RI DEFGRID2 scfconv6 printgap
|  2> %output
|  3>     printlevel normal
|  4> end
|  5> * xyz 0 1
|  6> C 2.4332623654 -0.2525812507 0.1397440026
|  7> C 1.0144476112 0.2344697602 0.4095946522
|  8> C 0.0624546281 -0.1421498535 -0.7244864391
|  9> C -1.3628124976 0.3944616288 -0.5168796246
| 10> N -2.0936789785 -0.1694437956 0.6073206769
| 11> H 2.8186404573 0.188624368 -0.7766497802
| 12> H 3.0936365711 0.0221462086 0.9585523901
| 13> H 2.4508138033 -1.3349173947 0.0316947938
| 14> H 0.6629997865 -0.200958917 1.3482834639
| 15> H 1.0186006167 1.3207842559 0.5274402155
| 16> H 0.4476491595 0.2613499719 -1.6630421105
| 17> H 0.0250963728 -1.230887757 -0.8215399916
| 18> H -1.9516853238 0.1936154873 -1.4167071751
| 19> H -1.3257901789 1.4779702059 -0.3742289346
| 20> H -1.6117756167 0.0461986453 1.4733029993
| 21> H -2.1221957797 -1.1801104183 0.5198022387
| 22> *
| 23>
| 24>                          ****END OF INPUT****

CARTESIAN COORDINATES (ANGSTROEM)
---------------------------------
  C      2.433262   -0.252581    0.139744
  C      1.014448    0.234470    0.409595
  C      0.062455   -0.142150   -0.724486
  C     -1.362812    0.394462   -0.516880
  N     -2.093679   -0.169444    0.607321
  H      2.818640    0.188624   -0.776650
  H      3.093637    0.022146    0.958552
  H      2.450814   -1.334917    0.031695
  H      0.663000   -0.200959    1.348283
  H      1.018601    1.320784    0.527440
  H      0.447649    0.261350   -1.663042
  H      0.025096   -1.230888   -0.821540
  H     -1.951685    0.193615   -1.416707
  H     -1.325790    1.477970   -0.374229
  H     -1.611776    0.046199    1.473303
  H     -2.122196   -1.180110    0.519802

 Total Charge           Charge          ....    0
 Multiplicity           Mult            ....    1
 Number of Electrons    NEL             ....   42
 Basis Dimension        Dim             ....  155

ORBITAL ENERGIES
----------------

  NO   OCC          E(Eh)            E(eV)
   0   2.0000     -14.133370      -384.5886
   1   2.0000     -10.046867      -273.3892
   2   2.0000     -10.026609      -272.8379
   3   2.0000     -10.021641      -272.7027
   4   2.0000     -10.017642      -272.5939
   5   2.0000      -0.846249       -23.0276
   6   2.0000      -0.752238       -20.4694
   7   2.0000      -0.672534       -18.3006
   8   2.0000      -0.590864       -16.0782
   9   2.0000      -0.543382       -14.7862
  10   2.0000      -0.460945       -12.5429
  11   2.0000      -0.435921       -11.8620
  12   2.0000      -0.407112       -11.0781
  13   2.0000      -0.386762       -10.5243
  14   2.0000      -0.377237       -10.2651
  15   2.0000      -0.347542        -9.4571
  16   2.0000      -0.325315        -8.8523
  17   2.0000      -0.313991        -8.5441
  18   2.0000      -0.298430        -8.1207
  19   2.0000      -0.291519        -7.9326
  20   2.0000      -0.202956        -5.5227
  21   0.0000       0.076703         2.0872
  22   0.0000       0.103651         2.8205
  23   0.0000       0.117135         3.1874
  24   0.0000       0.125890         3.4256
  25   0.0000       0.136716         3.7202

MULLIKEN ATOMIC CHARGES
-----------------------
   0 C :   -0.471873
   1 C :   -0.251559
   2 C :   -0.224041
   3 C :   -0.257941
   4 N :   -0.551425
   5 H :    0.142666
   6 H :    0.146108
   7 H :    0.141016
   8 H :    0.132168
   9 H :    0.139896
  10 H :    0.133035
  11 H :    0.134259
  12 H :    0.151071
  13 H :    0.148692
  14 H :    0.247579
  15 H :    0.240348
Sum of atomic charges:   -0.0000000

LOEWDIN ATOMIC CHARGES
----------------------
   0 C :   -0.424034
   1 C :   -0.321727
   2 C :   -0.307278
   3 C :   -0.084681
   4 N :   -0.732399
   5 H :    0.149889
   6 H :    0.149668
   7 H :    0.149843
   8 H :    0.147651
   9 H :    0.152106
  10 H :    0.155699
  11 H :    0.152976
  12 H :    0.172398
  13 H :    0.172003
  14 H :    0.234021
  15 H :    0.233864

  Mayer bond orders larger than 0.100000
B(  0-C ,  1-C ) :   0.9060 B(  0-C ,  5-H ) :   0.9853 B(  0-C ,  6-H ) :   0.9751
B(  0-C ,  7-H ) :   0.9823 B(  1-C ,  2-C ) :   0.9088 B(  1-C ,  8-H ) :   0.9692
B(  1-C ,  9-H ) :   0.9697 B(  2-C ,  3-C ) :   0.8806 B(  2-C , 10-H ) :   0.9681
B(  2-C , 11-H ) :   0.9761 B(  3-C ,  4-N ) :   0.9570 B(  3-C , 12-H ) :   0.9923
B(  3-C , 13-H ) :   1.0034 B(  4-N , 14-H ) :   0.9217 B(  4-N , 15-H ) :   0.9181

Dispersion correction           -0.003434029
FINAL SINGLE POINT ENERGY      -213.723487296876

DIPOLE MOMENT
-------------

Method             : SCF
Type of density    : Electron Density
Multiplicity       :   1
Irrep              :   0
Energy             :  -213.7306110149414451 Eh
Relativity type    :
Basis              : AO
                                X                 Y                 Z
Electronic contribution:     -2.790585564       0.212204747       0.178317575
Nuclear contribution   :      3.277747023      -0.410138537      -0.177832949
                        -----------------------------------------
Total Dipole Moment    :      0.487161458      -0.197933790       0.000484626
                        -----------------------------------------
Magnitude (a.u.)       :      0.525836768
Magnitude (Debye)      :      1.336570845

Rotational constants in cm-1:             0.409195             0.077381             0.071821
Rotational constants in MHz :         12267.353402          2319.814269          2153.142754

                             ****ORCA TERMINATED NORMALLY****
TOTAL RUN TIME: 0 days 0 hours 0 minutes 17 seconds 819 msec
