                         Program Version 6.0.0  -   RELEASE  -
|  1> ! r2scan-3c def2/J RI DEFGRID2 scfconv6 printgap
|  2> %output
|  3>     printlevel normal
|  4> end
|  5> %cpcm
|  6>     smd true
|  7>     smdsolvent "water"
|  8> end
|  9> * xyz 0 1
| 10> C 2.4332623654 -0.2525812507 0.1397440026
| 11> C 1.0144476112 0.2344697602 0.4095946522
| 12> C 0.0624546281 -0.1421498535 -0.7244864391
| 13> C -1.3628124976 0.3944616288 -0.5168796246
| 14> N -2.0936789785 -0.1694437956 0.6073206769
| 15> H 2.8186404573 0.188624368 -0.7766497802
| 16> H 3.0936365711 0.0221462086 0.9585523901
| 17> H 2.4508138033 -1.3349173947 0.0316947938
| 18> H 0.6629997865 -0.200958917 1.3482834639
| 19> H 1.0186006167 1.3207842559 0.5274402155
| 20> H 0.4476491595 0.2613499719 -1.6630421105
| 21> H 0.0250963728 -1.230887757 -0.8215399916
| 22> H -1.9516853238 0.1936154873 -1.4167071751
| 23> H -1.3257901789 1.4779702059 -0.3742289346
| 24> H -1.6117756167 0.0461986453 1.4733029993
| 25> H -2.1221957797 -1.1801104183 0.5198022387
| 26> *
| 27>
| 28>                          ****END OF INPUT****

CARTESIAN COORDINATES (ANGSTROEM)
---------------------------------
  C      2.433262   -0.252581    0.139744
  C      1.014448    0.234470    0.409595
  C      0.062455   -0.142150   -0.724486
  C     -1.362812    0.394462   -0.516880
  N     -2.093679   -0.169444    0.607321
  H      2.818640    0.188624   -0.776650
  H      3.093637    0.022146    0.958552
  H      2.450814   -1.334917    0.031695
  H      0.663000   -0.200959    1.348283
  H      1.018601    1.320784    0.527440
  H      0.447649    0.261350   -1.663042
  H      0.025096   -1.230888   -0.821540
  H     -1.951685    0.193615   -1.416707
  H     -1.325790    1.477970   -0.374229
  H     -1.611776    0.046199    1.473303
  H     -2.122196   -1.180110    0.519802

 Total Charge           Charge          ....    0
 Multiplicity           Mult            ....    1
 Number of Electrons    NEL             ....   42
 Basis Dimension        Dim             ....  155

ORBITAL ENERGIES
----------------

  NO   OCC          E(Eh)            E(eV)
   0   2.0000     -14.126845      -384.4110
   1   2.0000     -10.039880      -273.1990
   2   2.0000     -10.015018      -272.5225
   3   2.0000     -10.011608      -272.4297
   4   2.0000     -10.007003      -272.3044
   5   2.0000      -0.839779       -22.8516
   6   2.0000      -0.741933       -20.1890
   7   2.0000      -0.663531       -18.0556
   8   2.0000      -0.582215       -15.8429
   9   2.0000      -0.533466       -14.5163
  10   2.0000      -0.452926       -12.3247
  11   2.0000      -0.425274       -11.5723
  12   2.0000      -0.398515       -10.8442
  13   2.0000      -0.378587       -10.3019
  14   2.0000      -0.367897       -10.0110
  15   2.0000      -0.338334        -9.2065
  16   2.0000      -0.315820        -8.5939
  17   2.0000      -0.305039        -8.3005
  18   2.0000      -0.286761        -7.8032
  19   2.0000      -0.281877        -7.6703
  20   2.0000      -0.203110        -5.5269
  21   0.0000       0.088338         2.4038
  22   0.0000       0.114068         3.1040
  23   0.0000       0.127780         3.4771
  24   0.0000       0.139999         3.8096
  25   0.0000       0.145759         3.9663

MULLIKEN ATOMIC CHARGES
-----------------------
   0 C :   -0.513866
   1 C :   -0.256510
   2 C :   -0.251916
   3 C :   -0.255254
   4 N :   -0.649070
   5 H :    0.152904
   6 H :    0.155095
   7 H :    0.152244
   8 H :    0.147000
   9 H :    0.146713
  10 H :    0.142201
  11 H :    0.147750
  12 H :    0.154131
  13 H :    0.155334
  14 H :    0.290000
  15 H :    0.283243
Sum of atomic charges:   -0.0000000

LOEWDIN ATOMIC CHARGES
----------------------
   0 C :   -0.433422
   1 C :   -0.321984
   2 C :   -0.307363
   3 C :   -0.090285
   4 N :   -0.757924
   5 H :    0.151684
   6 H :    0.151539
   7 H :    0.152105
   8 H :    0.152505
   9 H :    0.154022
  10 H :    0.158261
  11 H :    0.157117
  12 H :    0.173224
  13 H :    0.173788
  14 H :    0.243235
  15 H :    0.243497

  Mayer bond orders larger than 0.100000
B(  0-C ,  1-C ) :   0.8932 B(  0-C ,  5-H ) :   0.9830 B(  0-C ,  6-H ) :   0.9728
B(  0-C ,  7-H ) :   0.9803 B(  1-C ,  2-C ) :   0.9102 B(  1-C ,  8-H ) :   0.9673
B(  1-C ,  9-H ) :   0.9693 B(  2-C ,  3-C ) :   0.8988 B(  2-C , 10-H ) :   0.9679
B(  2-C , 11-H ) :   0.9747 B(  3-C ,  4-N ) :   0.9640 B(  3-C , 12-H ) :   0.9831
B(  3-C , 13-H ) :   0.9956 B(  4-N , 14-H ) :   0.9049 B(  4-N , 15-H ) :   0.9018

Dispersion correction           -0.003434029
FINAL SINGLE POINT ENERGY      -213.729294810330

DIPOLE MOMENT
-------------

Method             : SCF
Type of density    : Electron Density
Multiplicity       :   1
Irrep              :   0
Energy             :  -213.7364185283954043 Eh
Relativity type    :
Basis              : AO
                                X                 Y                 Z
Electronic contribution:     -2.638180968       0.130826186       0.201229186
Nuclear contribution   :      3.277747023      -0.410138537      -0.177832949
                        -----------------------------------------
Total Dipole Moment    :      0.639566055      -0.279312351       0.023396237
                        -----------------------------------------
Magnitude (a.u.)       :      0.698288989
Magnitude (Debye)      :      1.774909556

Rotational constants in cm-1:             0.409195             0.077381             0.071821
Rotational constants in MHz :         12267.353402          2319.814269          2153.142754

                             ****ORCA TERMINATED NORMALLY****
TOTAL RUN TIME: 0 days 0 hours 0 minutes 21 seconds 627 msec
