                         Program Version 6.0.0  -   RELEASE  -
|  1> ! pbe def2-sv(p) def2/J RI DEFGRID1 loosescf d4 GCP(DFT/SV(P)) printgap
|  2> %output
|  3>     printlevel normal
|  4> end
|  5> * xyz 0 1
|  6> C -3.5121364897 -0.826803618 0.1949020763
|  7> C -2.0959655954 -0.6490140941 -0.3365562776
|  8> C -1.2740350041 0.278744504 0.5654870497
|  9> C 0.0828375423 0.5347155582 -0.0355109017
| 10> O 0.2725062523 0.9877867859 -1.1453289338
| 11> O 1.0587752853 0.2038349063 0.8004061671
| 12> C 2.4205507733 0.369136258 0.368652481
| 13> C 2.9145956435 -0.8675360189 -0.3661250431
| 14> H -3.4921393366 -1.2469217049 1.1972368847
| 15> H -4.0287844222 0.1288267109 0.2308845267
| 16> H -4.0728568601 -1.4978322251 -0.449796557
| 17> H -2.1222670736 -0.223729402 -1.3417608474
| 18> H -1.6014390659 -1.6204554266 -0.3977773019
| 19> H -1.1451442771 -0.1516049373 1.5576285285
| 20> H -1.7874510781 1.2383894871 0.6505053965
| 21> H 2.4761252137 1.2498673001 -0.2782693524
| 22> H 2.9826558097 0.5366536747 1.287831301
| 23> H 3.9608674461 -0.738943058 -0.6234534582
| 24> H 2.8043939275 -1.7459557993 0.2639238688
| 25> H 2.3413858951 -1.0115120437 -1.2793467243
| 26> *
| 27>
| 28>                          ****END OF INPUT****

CARTESIAN COORDINATES (ANGSTROEM)
---------------------------------
  C     -3.512136   -0.826804    0.194902
  C     -2.095966   -0.649014   -0.336556
  C     -1.274035    0.278745    0.565487
  C      0.082838    0.534716   -0.035511
  O      0.272506    0.987787   -1.145329
  O      1.058775    0.203835    0.800406
  C      2.420551    0.369136    0.368652
  C      2.914596   -0.867536   -0.366125
  H     -3.492139   -1.246922    1.197237
  H     -4.028784    0.128827    0.230885
  H     -4.072857   -1.497832   -0.449797
  H     -2.122267   -0.223729   -1.341761
  H     -1.601439   -1.620455   -0.397777
  H     -1.145144   -0.151605    1.557629
  H     -1.787451    1.238389    0.650505
  H      2.476125    1.249867   -0.278269
  H      2.982656    0.536654    1.287831
  H      3.960867   -0.738943   -0.623453
  H      2.804394   -1.745956    0.263924
  H      2.341386   -1.011512   -1.279347

 Total Charge           Charge          ....    0
 Multiplicity           Mult            ....    1
 Number of Electrons    NEL             ....   64
 Basis Dimension        Dim             ....  136

ORBITAL ENERGIES
----------------

  NO   OCC          E(Eh)            E(eV)
   0   2.0000     -18.796903      -511.4897
   1   2.0000     -18.730224      -509.6753
   2   2.0000     -10.003742      -272.2157
   3   2.0000      -9.945458      -270.6297
   4   2.0000      -9.895716      -269.2761
   5   2.0000      -9.891703      -269.1669
   6   2.0000      -9.886731      -269.0316
   7   2.0000      -9.878648      -268.8117
   8   2.0000      -1.003117       -27.2962
   9   2.0000      -0.907420       -24.6921
  10   2.0000      -0.726566       -19.7709
  11   2.0000      -0.697318       -18.9750
  12   2.0000      -0.638953       -17.3868
  13   2.0000      -0.588288       -16.0081
  14   2.0000      -0.532446       -14.4886
  15   2.0000      -0.493551       -13.4302
  16   2.0000      -0.451746       -12.2926
  17   2.0000      -0.430328       -11.7098
  18   2.0000      -0.425710       -11.5842
  19   2.0000      -0.400527       -10.8989
  20   2.0000      -0.390085       -10.6148
  21   2.0000      -0.376194       -10.2368
  22   2.0000      -0.353730        -9.6255
  23   2.0000      -0.352462        -9.5910
  24   2.0000      -0.338875        -9.2213
  25   2.0000      -0.329139        -8.9563
  26   2.0000      -0.311573        -8.4783
  27   2.0000      -0.298761        -8.1297
  28   2.0000      -0.294614        -8.0169
  29   2.0000      -0.287140        -7.8135
  30   2.0000      -0.254510        -6.9256
  31   2.0000      -0.216743        -5.8979
  32   0.0000      -0.018753        -0.5103
  33   0.0000       0.039746         1.0815
  34   0.0000       0.053497         1.4557
  35   0.0000       0.075698         2.0598
  36   0.0000       0.081531         2.2186

MULLIKEN ATOMIC CHARGES
-----------------------
   0 C :   -0.249029
   1 C :   -0.229346
   2 C :   -0.136952
   3 C :    0.116675
   4 O :   -0.214235
   5 O :   -0.233897
   6 C :   -0.013889
   7 C :   -0.302635
   8 H :    0.097730
   9 H :    0.099340
  10 H :    0.106560
  11 H :    0.109866
  12 H :    0.092829
  13 H :    0.092111
  14 H :    0.106776
  15 H :    0.107375
  16 H :    0.101212
  17 H :    0.111817
  18 H :    0.112159
  19 H :    0.125533
Sum of atomic charges:    0.0000000

LOEWDIN ATOMIC CHARGES
----------------------
   0 C :   -0.339540
   1 C :   -0.227059
   2 C :   -0.245853
   3 C :    0.038249
   4 O :   -0.175014
   5 O :   -0.066528
   6 C :   -0.113860
   7 C :   -0.355745
   8 H :    0.117268
   9 H :    0.118434
  10 H :    0.121609
  11 H :    0.124117
  12 H :    0.117801
  13 H :    0.126712
  14 H :    0.139606
  15 H :    0.119311
  16 H :    0.116649
  17 H :    0.129985
  18 H :    0.123762
  19 H :    0.130095

  Mayer bond orders larger than 0.100000
B(  0-C ,  1-C ) :   1.1592 B(  0-C ,  8-H ) :   0.9526 B(  0-C ,  9-H ) :   0.9542
B(  0-C , 10-H ) :   0.9525 B(  1-C ,  2-C ) :   1.1271 B(  1-C , 11-H ) :   0.9211
B(  1-C , 12-H ) :   0.9307 B(  2-C ,  3-C ) :   1.0226 B(  2-C , 13-H ) :   0.9085
B(  2-C , 14-H ) :   0.8917 B(  3-C ,  4-O ) :   2.0343 B(  3-C ,  5-O ) :   1.2248
B(  5-O ,  6-C ) :   0.9208 B(  6-C ,  7-C ) :   1.1733 B(  6-C , 15-H ) :   0.9120
B(  6-C , 16-H ) :   0.9373 B(  7-C , 17-H ) :   0.9446 B(  7-C , 18-H ) :   0.9493
B(  7-C , 19-H ) :   0.9468

Dispersion correction           -0.014651372
FINAL SINGLE POINT ENERGY      -385.458279819424

DIPOLE MOMENT
-------------

Method             : SCF
Type of density    : Electron Density
Multiplicity       :   1
Irrep              :   0
Energy             :  -385.5333150819404295 Eh
Relativity type    :
Basis              : AO
                                X                 Y                 Z
Electronic contribution:      3.636281921       4.410274045      -0.221966186
Nuclear contribution   :     -3.437079047      -4.751235745       0.761936398
                        -----------------------------------------
Total Dipole Moment    :      0.199202874      -0.340961700       0.539970212
                        -----------------------------------------
Magnitude (a.u.)       :      0.668957768
Magnitude (Debye)      :      1.700355517

Rotational constants in cm-1:             0.159045             0.029841             0.029286
Rotational constants in MHz :          4768.048432           894.609417           877.962134

                             ****ORCA TERMINATED NORMALLY****
TOTAL RUN TIME: 0 days 0 hours 0 minutes 10 seconds 673 msec
