                         Program Version 6.0.0  -   RELEASE  -
|  1> ! pbe def2-sv(p) def2/J RI DEFGRID1 loosescf d4 GCP(DFT/SV(P)) printgap
|  2> %output
|  3>     printlevel normal
|  4> end
|  5> * xyz 0 1
|  6> C 2.5517955356 -0.3230447255 -0.0001745707
|  7> C 1.2828061417 0.5216782549 0.0001025584
|  8> C 0.0247203334 -0.3424688628 0.0002817518
|  9> C -1.255611047 0.5037545227 -9.2119e-05
| 10> N -2.494464822 -0.2600764949 -9.90544e-05
| 11> H 2.5861754985 -0.9588740246 -0.882079776
| 12> H 3.4332991558 0.3130624941 -0.0004453406
| 13> H 2.5866434476 -0.9587820302 0.8817775625
| 14> H 1.2746575479 1.1665626575 0.8815443493
| 15> H 1.2743384604 1.1666364839 -0.881283267
| 16> H 0.0283992937 -0.9879061541 -0.8828735295
| 17> H 0.0282618268 -0.9873745655 0.8838248055
| 18> H -1.2661675983 1.1477022064 -0.8840903095
| 19> H -1.266426908 1.1481269012 0.8835937155
| 20> H -2.5208365376 -0.8621429702 -0.8166767257
| 21> H -2.5210309237 -0.8618556662 0.8166834005
| 22> *
| 23>
| 24>                          ****END OF INPUT****

CARTESIAN COORDINATES (ANGSTROEM)
---------------------------------
  C      2.551796   -0.323045   -0.000175
  C      1.282806    0.521678    0.000103
  C      0.024720   -0.342469    0.000282
  C     -1.255611    0.503755   -0.000092
  N     -2.494465   -0.260076   -0.000099
  H      2.586175   -0.958874   -0.882080
  H      3.433299    0.313062   -0.000445
  H      2.586643   -0.958782    0.881778
  H      1.274658    1.166563    0.881544
  H      1.274338    1.166636   -0.881283
  H      0.028399   -0.987906   -0.882874
  H      0.028262   -0.987375    0.883825
  H     -1.266168    1.147702   -0.884090
  H     -1.266427    1.148127    0.883594
  H     -2.520837   -0.862143   -0.816677
  H     -2.521031   -0.861856    0.816683

 Total Charge           Charge          ....    0
 Multiplicity           Mult            ....    1
 Number of Electrons    NEL             ....   42
 Basis Dimension        Dim             ....   92

ORBITAL ENERGIES
----------------

  NO   OCC          E(Eh)            E(eV)
   0   2.0000     -13.952869      -379.6769
   1   2.0000      -9.901688      -269.4386
   2   2.0000      -9.883373      -268.9403
   3   2.0000      -9.879312      -268.8298
   4   2.0000      -9.872727      -268.6506
   5   2.0000      -0.790588       -21.5130
   6   2.0000      -0.707607       -19.2550
   7   2.0000      -0.628471       -17.1016
   8   2.0000      -0.548326       -14.9207
   9   2.0000      -0.516379       -14.0514
  10   2.0000      -0.450004       -12.2452
  11   2.0000      -0.409670       -11.1477
  12   2.0000      -0.388955       -10.5840
  13   2.0000      -0.380574       -10.3559
  14   2.0000      -0.350774        -9.5450
  15   2.0000      -0.330001        -8.9798
  16   2.0000      -0.306381        -8.3370
  17   2.0000      -0.301701        -8.2097
  18   2.0000      -0.291546        -7.9334
  19   2.0000      -0.284955        -7.7540
  20   2.0000      -0.176958        -4.8153
  21   0.0000       0.033734         0.9179
  22   0.0000       0.047890         1.3032
  23   0.0000       0.062995         1.7142
  24   0.0000       0.071961         1.9581
  25   0.0000       0.096001         2.6123

MULLIKEN ATOMIC CHARGES
-----------------------
   0 C :   -0.254757
   1 C :   -0.197720
   2 C :   -0.200995
   3 C :   -0.077597
   4 N :   -0.435081
   5 H :    0.096355
   6 H :    0.100923
   7 H :    0.096356
   8 H :    0.085564
   9 H :    0.085555
  10 H :    0.070425
  11 H :    0.070440
  12 H :    0.083374
  13 H :    0.083377
  14 H :    0.196891
  15 H :    0.196891
Sum of atomic charges:   -0.0000000

LOEWDIN ATOMIC CHARGES
----------------------
   0 C :   -0.339563
   1 C :   -0.234907
   2 C :   -0.252045
   3 C :   -0.182651
   4 N :   -0.406779
   5 H :    0.116216
   6 H :    0.118109
   7 H :    0.116219
   8 H :    0.114429
   9 H :    0.114425
  10 H :    0.107841
  11 H :    0.107847
  12 H :    0.110670
  13 H :    0.110671
  14 H :    0.199758
  15 H :    0.199758

  Mayer bond orders larger than 0.100000
B(  0-C ,  1-C ) :   1.1526 B(  0-C ,  5-H ) :   0.9551 B(  0-C ,  6-H ) :   0.9526
B(  0-C ,  7-H ) :   0.9551 B(  1-C ,  2-C ) :   1.1165 B(  1-C ,  8-H ) :   0.9270
B(  1-C ,  9-H ) :   0.9270 B(  2-C ,  3-C ) :   1.1017 B(  2-C , 10-H ) :   0.9204
B(  2-C , 11-H ) :   0.9204 B(  3-C ,  4-N ) :   1.1494 B(  3-C , 12-H ) :   0.9308
B(  3-C , 13-H ) :   0.9308 B(  4-N , 14-H ) :   0.9118 B(  4-N , 15-H ) :   0.9118

Dispersion correction           -0.009763266
FINAL SINGLE POINT ENERGY      -213.245809013502

DIPOLE MOMENT
-------------

Method             : SCF
Type of density    : Electron Density
Multiplicity       :   1
Irrep              :   0
Energy             :  -213.3062592509011210 Eh
Relativity type    :
Basis              : AO
                                X                 Y                 Z
Electronic contribution:     -3.034443593       0.268448819       0.000143827
Nuclear contribution   :      3.398759666      -0.634534961      -0.000024103
                        -----------------------------------------
Total Dipole Moment    :      0.364316073      -0.366086142       0.000119724
                        -----------------------------------------
Magnitude (a.u.)       :      0.516473889
Magnitude (Debye)      :      1.312772299

Rotational constants in cm-1:             0.594206             0.065749             0.062550
Rotational constants in MHz :         17813.861681          1971.118418          1875.188383

                             ****ORCA TERMINATED NORMALLY****
TOTAL RUN TIME: 0 days 0 hours 0 minutes 7 seconds 676 msec
