                         Program Version 6.0.0  -   RELEASE  -
|  1> ! pbe def2-sv(p) def2/J RI DEFGRID1 loosescf d4 GCP(DFT/SV(P)) printgap
|  2> %output
|  3>     printlevel normal
|  4> end
|  5> * xyz 0 1
|  6> C -3.256895262 -1.1773474053 0.3120944294
|  7> C -1.7561419479 -0.9206208056 0.2402543545
|  8> C -1.466721282 0.5339082215 -0.1185475666
|  9> C -0.0040370925 0.8801350787 -0.2116110007
| 10> O 0.4089753146 1.992201932 -0.4841788352
| 11> O 0.7972790932 -0.1433902947 0.031859322
| 12> C 2.2143860145 0.0892543666 -0.0332951615
| 13> C 2.9231292404 -1.2193872919 0.2565961197
| 14> H -3.7270454355 -0.966574221 -0.6452951523
| 15> H -3.45007751 -2.2151284881 0.5689883076
| 16> H -3.7170937947 -0.5446024099 1.0670123902
| 17> H -1.3062565555 -1.5737041707 -0.5083983241
| 18> H -1.2961414344 -1.153985314 1.201178646
| 19> H -1.9070390938 1.2079506561 0.6204700231
| 20> H -1.9164247325 0.7899627634 -1.0811339545
| 21> H 2.4564568481 0.4722714883 -1.0301610505
| 22> H 2.4713348644 0.8624999739 0.6981929657
| 23> H 3.9958981151 -1.0631952571 0.2135854043
| 24> H 2.6520783815 -1.5785549862 1.2447829839
| 25> H 2.6396633251 -1.9671000118 -0.4779589006
| 26> *
| 27>
| 28>                          ****END OF INPUT****

CARTESIAN COORDINATES (ANGSTROEM)
---------------------------------
  C     -3.256895   -1.177347    0.312094
  C     -1.756142   -0.920621    0.240254
  C     -1.466721    0.533908   -0.118548
  C     -0.004037    0.880135   -0.211611
  O      0.408975    1.992202   -0.484179
  O      0.797279   -0.143390    0.031859
  C      2.214386    0.089254   -0.033295
  C      2.923129   -1.219387    0.256596
  H     -3.727045   -0.966574   -0.645295
  H     -3.450078   -2.215128    0.568988
  H     -3.717094   -0.544602    1.067012
  H     -1.306257   -1.573704   -0.508398
  H     -1.296141   -1.153985    1.201179
  H     -1.907039    1.207951    0.620470
  H     -1.916425    0.789963   -1.081134
  H      2.456457    0.472271   -1.030161
  H      2.471335    0.862500    0.698193
  H      3.995898   -1.063195    0.213585
  H      2.652078   -1.578555    1.244783
  H      2.639663   -1.967100   -0.477959

 Total Charge           Charge          ....    0
 Multiplicity           Mult            ....    1
 Number of Electrons    NEL             ....   64
 Basis Dimension        Dim             ....  136

ORBITAL ENERGIES
----------------

  NO   OCC          E(Eh)            E(eV)
   0   2.0000     -18.797850      -511.5155
   1   2.0000     -18.727006      -509.5877
   2   2.0000     -10.000351      -272.1234
   3   2.0000      -9.946220      -270.6504
   4   2.0000      -9.895999      -269.2838
   5   2.0000      -9.888989      -269.0931
   6   2.0000      -9.888561      -269.0814
   7   2.0000      -9.877517      -268.7809
   8   2.0000      -1.004418       -27.3316
   9   2.0000      -0.902911       -24.5694
  10   2.0000      -0.728982       -19.8366
  11   2.0000      -0.697915       -18.9912
  12   2.0000      -0.638139       -17.3646
  13   2.0000      -0.579099       -15.7581
  14   2.0000      -0.534602       -14.5473
  15   2.0000      -0.508234       -13.8298
  16   2.0000      -0.450762       -12.2659
  17   2.0000      -0.439075       -11.9478
  18   2.0000      -0.423423       -11.5219
  19   2.0000      -0.400319       -10.8932
  20   2.0000      -0.378423       -10.2974
  21   2.0000      -0.369709       -10.0603
  22   2.0000      -0.358855        -9.7649
  23   2.0000      -0.347836        -9.4651
  24   2.0000      -0.342798        -9.3280
  25   2.0000      -0.321464        -8.7475
  26   2.0000      -0.311562        -8.4780
  27   2.0000      -0.307375        -8.3641
  28   2.0000      -0.293431        -7.9847
  29   2.0000      -0.292967        -7.9720
  30   2.0000      -0.253401        -6.8954
  31   2.0000      -0.210706        -5.7336
  32   0.0000      -0.015965        -0.4344
  33   0.0000       0.031679         0.8620
  34   0.0000       0.048162         1.3105
  35   0.0000       0.075909         2.0656
  36   0.0000       0.076496         2.0816

MULLIKEN ATOMIC CHARGES
-----------------------
   0 C :   -0.256697
   1 C :   -0.184029
   2 C :   -0.198367
   3 C :    0.136470
   4 O :   -0.221024
   5 O :   -0.237326
   6 C :   -0.029530
   7 C :   -0.271645
   8 H :    0.097116
   9 H :    0.104128
  10 H :    0.097120
  11 H :    0.091871
  12 H :    0.091862
  13 H :    0.114246
  14 H :    0.114284
  15 H :    0.105927
  16 H :    0.105449
  17 H :    0.111104
  18 H :    0.114542
  19 H :    0.114498
Sum of atomic charges:    0.0000000

LOEWDIN ATOMIC CHARGES
----------------------
   0 C :   -0.339852
   1 C :   -0.237065
   2 C :   -0.248378
   3 C :    0.033359
   4 O :   -0.178097
   5 O :   -0.062094
   6 C :   -0.107770
   7 C :   -0.350857
   8 H :    0.117148
   9 H :    0.120124
  10 H :    0.117121
  11 H :    0.118010
  12 H :    0.118019
  13 H :    0.142001
  14 H :    0.142069
  15 H :    0.116673
  16 H :    0.116538
  17 H :    0.130411
  18 H :    0.126318
  19 H :    0.126324

  Mayer bond orders larger than 0.100000
B(  0-C ,  1-C ) :   1.1505 B(  0-C ,  8-H ) :   0.9537 B(  0-C ,  9-H ) :   0.9536
B(  0-C , 10-H ) :   0.9537 B(  1-C ,  2-C ) :   1.1320 B(  1-C , 11-H ) :   0.9263
B(  1-C , 12-H ) :   0.9263 B(  2-C ,  3-C ) :   1.0383 B(  2-C , 13-H ) :   0.8985
B(  2-C , 14-H ) :   0.8981 B(  3-C ,  4-O ) :   2.0409 B(  3-C ,  5-O ) :   1.2266
B(  5-O ,  6-C ) :   0.9072 B(  6-C ,  7-C ) :   1.1490 B(  6-C , 15-H ) :   0.9314
B(  6-C , 16-H ) :   0.9321 B(  7-C , 17-H ) :   0.9444 B(  7-C , 18-H ) :   0.9499
B(  7-C , 19-H ) :   0.9500

Dispersion correction           -0.014445476
FINAL SINGLE POINT ENERGY      -385.456585697848

DIPOLE MOMENT
-------------

Method             : SCF
Type of density    : Electron Density
Multiplicity       :   1
Irrep              :   0
Energy             :  -385.5318509558923665 Eh
Relativity type    :
Basis              : AO
                                X                 Y                 Z
Electronic contribution:      3.014867970       6.431649769      -1.558091516
Nuclear contribution   :     -2.894789906      -7.224764180       1.748849880
                        -----------------------------------------
Total Dipole Moment    :      0.120078064      -0.793114411       0.190758364
                        -----------------------------------------
Magnitude (a.u.)       :      0.824522871
Magnitude (Debye)      :      2.095770583

Rotational constants in cm-1:             0.109097             0.035957             0.027741
Rotational constants in MHz :          3270.642121          1077.949391           831.646428

                             ****ORCA TERMINATED NORMALLY****
TOTAL RUN TIME: 0 days 0 hours 0 minutes 11 seconds 444 msec
