                         Program Version 6.0.0  -   RELEASE  -
|  1> ! pbe def2-sv(p) def2/J RI DEFGRID1 loosescf d4 GCP(DFT/SV(P)) printgap
|  2> %output
|  3>     printlevel normal
|  4> end
|  5> * xyz 0 1
|  6> C -2.668370365 -1.0218305865 -0.4417471832
|  7> C -2.1846307211 -0.2809402417 0.7989015024
|  8> C -1.3078521653 0.9236495004 0.4348413229
|  9> C -0.0334173075 0.4884419179 -0.2421486555
| 10> O 0.2885053606 0.7911023417 -1.3729168314
| 11> O 0.7021571934 -0.2817276752 0.5493269765
| 12> C 1.9552311001 -0.7771366239 0.0521669705
| 13> C 3.0765792959 0.2197798832 0.301904
| 14> H -1.8248450718 -1.3840129777 -1.026865881
| 15> H -3.2832338315 -1.8726453219 -0.1607965116
| 16> H -3.2577430608 -0.3623024669 -1.0744401964
| 17> H -1.6100884604 -0.9569102333 1.4335918736
| 18> H -3.0442194301 0.075418935 1.3674112452
| 19> H -1.0356894543 1.46115276 1.3438341061
| 20> H -1.838231556 1.5947971163 -0.2406327971
| 21> H 2.1210819148 -1.7058494015 0.5991402079
| 22> H 1.8519449029 -0.9791533733 -1.0184669555
| 23> H 3.1353843279 0.4592607708 1.3601697928
| 24> H 4.018792275 -0.2100226273 -0.0219437538
| 25> H 2.8939459184 1.1336383521 -0.259200413
| 26> *
| 27>
| 28>                          ****END OF INPUT****

CARTESIAN COORDINATES (ANGSTROEM)
---------------------------------
  C     -2.668370   -1.021831   -0.441747
  C     -2.184631   -0.280940    0.798902
  C     -1.307852    0.923650    0.434841
  C     -0.033417    0.488442   -0.242149
  O      0.288505    0.791102   -1.372917
  O      0.702157   -0.281728    0.549327
  C      1.955231   -0.777137    0.052167
  C      3.076579    0.219780    0.301904
  H     -1.824845   -1.384013   -1.026866
  H     -3.283234   -1.872645   -0.160797
  H     -3.257743   -0.362302   -1.074440
  H     -1.610088   -0.956910    1.433592
  H     -3.044219    0.075419    1.367411
  H     -1.035689    1.461153    1.343834
  H     -1.838232    1.594797   -0.240633
  H      2.121082   -1.705849    0.599140
  H      1.851945   -0.979153   -1.018467
  H      3.135384    0.459261    1.360170
  H      4.018792   -0.210023   -0.021944
  H      2.893946    1.133638   -0.259200

 Total Charge           Charge          ....    0
 Multiplicity           Mult            ....    1
 Number of Electrons    NEL             ....   64
 Basis Dimension        Dim             ....  136

ORBITAL ENERGIES
----------------

  NO   OCC          E(Eh)            E(eV)
   0   2.0000     -18.797404      -511.5034
   1   2.0000     -18.730225      -509.6753
   2   2.0000     -10.004394      -272.2334
   3   2.0000      -9.946740      -270.6646
   4   2.0000      -9.896115      -269.2870
   5   2.0000      -9.893279      -269.2098
   6   2.0000      -9.886658      -269.0296
   7   2.0000      -9.877159      -268.7712
   8   2.0000      -1.004234       -27.3266
   9   2.0000      -0.907221       -24.6867
  10   2.0000      -0.730124       -19.8677
  11   2.0000      -0.694640       -18.9021
  12   2.0000      -0.636480       -17.3195
  13   2.0000      -0.589274       -16.0350
  14   2.0000      -0.536059       -14.5869
  15   2.0000      -0.496700       -13.5159
  16   2.0000      -0.453195       -12.3320
  17   2.0000      -0.428590       -11.6625
  18   2.0000      -0.414291       -11.2734
  19   2.0000      -0.406686       -11.0665
  20   2.0000      -0.388271       -10.5654
  21   2.0000      -0.378818       -10.3081
  22   2.0000      -0.356481        -9.7003
  23   2.0000      -0.352355        -9.5881
  24   2.0000      -0.338191        -9.2026
  25   2.0000      -0.326613        -8.8876
  26   2.0000      -0.311236        -8.4692
  27   2.0000      -0.299840        -8.1591
  28   2.0000      -0.298117        -8.1122
  29   2.0000      -0.289152        -7.8682
  30   2.0000      -0.255211        -6.9447
  31   2.0000      -0.213567        -5.8114
  32   0.0000      -0.019808        -0.5390
  33   0.0000       0.040686         1.1071
  34   0.0000       0.053209         1.4479
  35   0.0000       0.073519         2.0006
  36   0.0000       0.080310         2.1854

MULLIKEN ATOMIC CHARGES
-----------------------
   0 C :   -0.287269
   1 C :   -0.214389
   2 C :   -0.103858
   3 C :    0.085485
   4 O :   -0.205989
   5 O :   -0.243175
   6 C :   -0.011612
   7 C :   -0.303376
   8 H :    0.118608
   9 H :    0.106064
  10 H :    0.103080
  11 H :    0.103331
  12 H :    0.093642
  13 H :    0.105921
  14 H :    0.096919
  15 H :    0.100002
  16 H :    0.106280
  17 H :    0.112135
  18 H :    0.111658
  19 H :    0.126543
Sum of atomic charges:    0.0000000

LOEWDIN ATOMIC CHARGES
----------------------
   0 C :   -0.342285
   1 C :   -0.229748
   2 C :   -0.242554
   3 C :    0.034440
   4 O :   -0.170153
   5 O :   -0.068481
   6 C :   -0.113205
   7 C :   -0.356060
   8 H :    0.120893
   9 H :    0.120718
  10 H :    0.120329
  11 H :    0.119928
  12 H :    0.118360
  13 H :    0.137201
  14 H :    0.131700
  15 H :    0.115989
  16 H :    0.118653
  17 H :    0.123831
  18 H :    0.129923
  19 H :    0.130521

  Mayer bond orders larger than 0.100000
B(  0-C ,  1-C ) :   1.1523 B(  0-C ,  8-H ) :   0.9483 B(  0-C ,  9-H ) :   0.9515
B(  0-C , 10-H ) :   0.9536 B(  1-C ,  2-C ) :   1.1077 B(  1-C , 11-H ) :   0.9241
B(  1-C , 12-H ) :   0.9270 B(  2-C ,  3-C ) :   1.0315 B(  2-C , 13-H ) :   0.8951
B(  2-C , 14-H ) :   0.9109 B(  3-C ,  4-O ) :   2.0506 B(  3-C ,  5-O ) :   1.1897
B(  5-O ,  6-C ) :   0.9244 B(  6-C ,  7-C ) :   1.1742 B(  6-C , 15-H ) :   0.9368
B(  6-C , 16-H ) :   0.9126 B(  7-C , 17-H ) :   0.9492 B(  7-C , 18-H ) :   0.9446
B(  7-C , 19-H ) :   0.9464

Dispersion correction           -0.015384235
FINAL SINGLE POINT ENERGY      -385.457804798099

DIPOLE MOMENT
-------------

Method             : SCF
Type of density    : Electron Density
Multiplicity       :   1
Irrep              :   0
Energy             :  -385.5327574159272785 Eh
Relativity type    :
Basis              : AO
                                X                 Y                 Z
Electronic contribution:      1.862084458       2.224382741      -1.487514097
Nuclear contribution   :     -1.742404132      -2.569242270       2.147260452
                        -----------------------------------------
Total Dipole Moment    :      0.119680325      -0.344859529       0.659746355
                        -----------------------------------------
Magnitude (a.u.)       :      0.754000483
Magnitude (Debye)      :      1.916516919

Rotational constants in cm-1:             0.138521             0.036047             0.034478
Rotational constants in MHz :          4152.760876          1080.657782          1033.610048

                             ****ORCA TERMINATED NORMALLY****
TOTAL RUN TIME: 0 days 0 hours 0 minutes 11 seconds 395 msec
