                         Program Version 6.0.0  -   RELEASE  -
|  1> ! pbe def2-sv(p) def2/J RI DEFGRID1 loosescf d4 GCP(DFT/SV(P)) printgap
|  2> %output
|  3>     printlevel normal
|  4> end
|  5> * xyz 0 1
|  6> C -4.6957479965 -0.9889616697 -0.2668682681
|  7> C -4.0009353736 -2.1818335861 -0.1221341842
|  8> C -2.6267768268 -2.1686782333 0.0291596402
|  9> C -1.9223312217 -0.9664428079 0.0373008917
| 10> C -2.6245375572 0.2350775603 -0.1096014094
| 11> C -4.0099788941 0.2109147392 -0.260099747
| 12> C -1.9185965308 1.5223630635 -0.1080751931
| 13> O -2.5224187483 2.5862205331 -0.2312133691
| 14> C -0.4537204824 1.4775378382 0.0444926236
| 15> C 0.2149002871 2.6890799212 0.0174676244
| 16> C 1.6007566937 2.7316966723 0.1453067864
| 17> C 2.3133292145 1.573791025 0.3049730792
| 18> C 1.6730053618 0.3114047335 0.3509959308
| 19> C 0.2516143623 0.2615526137 0.2079216081
| 20> C -0.4564795357 -1.0006583834 0.208215956
| 21> O 0.1062424806 -2.1024049843 0.3383875018
| 22> N 2.3748487271 -0.8131253185 0.5512684859
| 23> C 3.8074167341 -0.9294184794 0.6017431757
| 24> C 4.4405425315 -0.9088219572 -0.8059188616
| 25> O 5.84615263 -0.9032181004 -0.7564242484
| 26> H -5.7678685309 -0.996234343 -0.3844619982
| 27> H -4.5314870313 -3.1210237142 -0.1268284061
| 28> H -2.0685439344 -3.0858910258 0.144661692
| 29> H -4.5242510321 1.1541388541 -0.3707567824
| 30> H -0.3639056779 3.591014322 -0.1089523984
| 31> H 2.1112228316 3.681428404 0.1156950589
| 32> H 3.3850274509 1.6230689192 0.3967952315
| 33> H 1.8288353114 -1.6716203241 0.5059323828
| 34> H 4.0416389546 -1.8768243957 1.0903612652
| 35> H 4.2418645146 -0.1227671156 1.1974426027
| 36> H 4.1578694107 0.0101132304 -1.3252113825
| 37> H 4.0700452439 -1.7607339631 -1.389787798
| 38> H 6.1604952986 -1.735016749 -0.3753285078
| 39> *
| 40>
| 41>                          ****END OF INPUT****

CARTESIAN COORDINATES (ANGSTROEM)
---------------------------------
  C     -4.695748   -0.988962   -0.266868
  C     -4.000935   -2.181834   -0.122134
  C     -2.626777   -2.168678    0.029160
  C     -1.922331   -0.966443    0.037301
  C     -2.624538    0.235078   -0.109601
  C     -4.009979    0.210915   -0.260100
  C     -1.918597    1.522363   -0.108075
  O     -2.522419    2.586221   -0.231213
  C     -0.453720    1.477538    0.044493
  C      0.214900    2.689080    0.017468
  C      1.600757    2.731697    0.145307
  C      2.313329    1.573791    0.304973
  C      1.673005    0.311405    0.350996
  C      0.251614    0.261553    0.207922
  C     -0.456480   -1.000658    0.208216
  O      0.106242   -2.102405    0.338388
  N      2.374849   -0.813125    0.551268
  C      3.807417   -0.929418    0.601743
  C      4.440543   -0.908822   -0.805919
  O      5.846153   -0.903218   -0.756424
  H     -5.767869   -0.996234   -0.384462
  H     -4.531487   -3.121024   -0.126828
  H     -2.068544   -3.085891    0.144662
  H     -4.524251    1.154139   -0.370757
  H     -0.363906    3.591014   -0.108952
  H      2.111223    3.681428    0.115695
  H      3.385027    1.623069    0.396795
  H      1.828835   -1.671620    0.505932
  H      4.041639   -1.876824    1.090361
  H      4.241865   -0.122767    1.197443
  H      4.157869    0.010113   -1.325211
  H      4.070045   -1.760734   -1.389788
  H      6.160495   -1.735017   -0.375329

 Total Charge           Charge          ....    0
 Multiplicity           Mult            ....    1
 Number of Electrons    NEL             ....  140
 Basis Dimension        Dim             ....  306

ORBITAL ENERGIES
----------------

  NO   OCC          E(Eh)            E(eV)
   0   2.0000     -18.759679      -510.4768
   1   2.0000     -18.749316      -510.1948
   2   2.0000     -18.742416      -510.0071
   3   2.0000     -14.020639      -381.5210
   4   2.0000      -9.977963      -271.5142
   5   2.0000      -9.973917      -271.4041
   6   2.0000      -9.959762      -271.0189
   7   2.0000      -9.945261      -270.6243
   8   2.0000      -9.937950      -270.4254
   9   2.0000      -9.913638      -269.7638
  10   2.0000      -9.912177      -269.7240
  11   2.0000      -9.912026      -269.7199
  12   2.0000      -9.911178      -269.6969
  13   2.0000      -9.909475      -269.6505
  14   2.0000      -9.908797      -269.6321
  15   2.0000      -9.908024      -269.6110
  16   2.0000      -9.906790      -269.5775
  17   2.0000      -9.904826      -269.5240
  18   2.0000      -9.904249      -269.5083
  19   2.0000      -9.895088      -269.2590
  20   2.0000      -0.941541       -25.6206
  21   2.0000      -0.936256       -25.4768
  22   2.0000      -0.934955       -25.4414
  23   2.0000      -0.874950       -23.8086
  24   2.0000      -0.797036       -21.6884
  25   2.0000      -0.782172       -21.2840
  26   2.0000      -0.725225       -19.7344
  27   2.0000      -0.703169       -19.1342
  28   2.0000      -0.688033       -18.7223
  29   2.0000      -0.683757       -18.6060
  30   2.0000      -0.654596       -17.8125
  31   2.0000      -0.609505       -16.5855
  32   2.0000      -0.597390       -16.2558
  33   2.0000      -0.581266       -15.8171
  34   2.0000      -0.573562       -15.6074
  35   2.0000      -0.537548       -14.6274
  36   2.0000      -0.524240       -14.2653
  37   2.0000      -0.497353       -13.5337
  38   2.0000      -0.491305       -13.3691
  39   2.0000      -0.476352       -12.9622
  40   2.0000      -0.469381       -12.7725
  41   2.0000      -0.443025       -12.0553
  42   2.0000      -0.436041       -11.8653
  43   2.0000      -0.429309       -11.6821
  44   2.0000      -0.419697       -11.4205
  45   2.0000      -0.416010       -11.3202
  46   2.0000      -0.407742       -11.0952
  47   2.0000      -0.399945       -10.8831
  48   2.0000      -0.388326       -10.5669
  49   2.0000      -0.385826       -10.4989
  50   2.0000      -0.382779       -10.4159
  51   2.0000      -0.371299       -10.1035
  52   2.0000      -0.367609       -10.0032
  53   2.0000      -0.359381        -9.7792
  54   2.0000      -0.353585        -9.6215
  55   2.0000      -0.347148        -9.4464
  56   2.0000      -0.338430        -9.2091
  57   2.0000      -0.331082        -9.0092
  58   2.0000      -0.322508        -8.7759
  59   2.0000      -0.316808        -8.6208
  60   2.0000      -0.308479        -8.3941
  61   2.0000      -0.297399        -8.0926
  62   2.0000      -0.281366        -7.6564
  63   2.0000      -0.249536        -6.7902
  64   2.0000      -0.242278        -6.5927
  65   2.0000      -0.240954        -6.5567
  66   2.0000      -0.234577        -6.3832
  67   2.0000      -0.218171        -5.9367
  68   2.0000      -0.205357        -5.5881
  69   2.0000      -0.188064        -5.1175
  70   0.0000      -0.126216        -3.4345
  71   0.0000      -0.078783        -2.1438
  72   0.0000      -0.051704        -1.4069
  73   0.0000      -0.031537        -0.8582
  74   0.0000       0.011273         0.3068

MULLIKEN ATOMIC CHARGES
-----------------------
   0 C :   -0.020829
   1 C :   -0.016594
   2 C :   -0.133567
   3 C :    0.051358
   4 C :    0.037876
   5 C :   -0.125736
   6 C :    0.085442
   7 O :   -0.150116
   8 C :    0.018054
   9 C :   -0.138505
  10 C :   -0.008798
  11 C :   -0.159050
  12 C :    0.076332
  13 C :    0.051933
  14 C :    0.072734
  15 O :   -0.220958
  16 N :   -0.226782
  17 C :   -0.099119
  18 C :   -0.003538
  19 O :   -0.426965
  20 H :    0.062640
  21 H :    0.062090
  22 H :    0.058214
  23 H :    0.058496
  24 H :    0.055727
  25 H :    0.060510
  26 H :    0.044171
  27 H :    0.244196
  28 H :    0.090430
  29 H :    0.110194
  30 H :    0.107771
  31 H :    0.083265
  32 H :    0.299124
Sum of atomic charges:    0.0000000

LOEWDIN ATOMIC CHARGES
----------------------
   0 C :   -0.107616
   1 C :   -0.105133
   2 C :   -0.088639
   3 C :   -0.044745
   4 C :   -0.053269
   5 C :   -0.082880
   6 C :    0.058579
   7 O :   -0.130887
   8 C :   -0.044596
   9 C :   -0.110746
  10 C :   -0.095515
  11 C :   -0.146550
  12 C :    0.034420
  13 C :   -0.090292
  14 C :    0.057064
  15 O :   -0.178720
  16 N :   -0.127175
  17 C :   -0.183741
  18 C :   -0.136288
  19 O :   -0.332462
  20 H :    0.128806
  21 H :    0.128565
  22 H :    0.134751
  23 H :    0.135978
  24 H :    0.135213
  25 H :    0.130491
  26 H :    0.130704
  27 H :    0.242387
  28 H :    0.118863
  29 H :    0.120041
  30 H :    0.118010
  31 H :    0.100039
  32 H :    0.285342

  Mayer bond orders larger than 0.100000
B(  0-C ,  1-C ) :   1.3271 B(  0-C ,  5-C ) :   1.3362 B(  0-C , 20-H ) :   0.9668
B(  1-C ,  2-C ) :   1.3357 B(  1-C , 21-H ) :   0.9665 B(  2-C ,  3-C ) :   1.3810
B(  2-C , 22-H ) :   0.9544 B(  3-C ,  4-C ) :   1.3350 B(  3-C , 14-C ) :   0.9804
B(  4-C ,  5-C ) :   1.3786 B(  4-C ,  6-C ) :   0.9563 B(  5-C , 23-H ) :   0.9568
B(  6-C ,  7-O ) :   2.1559 B(  6-C ,  8-C ) :   0.9493 B(  8-C ,  9-C ) :   1.4279
B(  8-C , 13-C ) :   1.3011 B(  9-C , 10-C ) :   1.2303 B(  9-C , 24-H ) :   0.9568
B( 10-C , 11-C ) :   1.3869 B( 10-C , 25-H ) :   0.9659 B( 11-C , 12-C ) :   1.2425
B( 11-C , 26-H ) :   0.9525 B( 12-C , 13-C ) :   1.2167 B( 12-C , 16-N ) :   1.3844
B( 13-C , 14-C ) :   1.0258 B( 14-C , 15-O ) :   1.9578 B( 15-O , 27-H ) :   0.1463
B( 16-N , 17-C ) :   1.0237 B( 16-N , 27-H ) :   0.7630 B( 17-C , 18-C ) :   1.0831
B( 17-C , 28-H ) :   0.9221 B( 17-C , 29-H ) :   0.9015 B( 18-C , 19-O ) :   1.0750
B( 18-C , 30-H ) :   0.9249 B( 18-C , 31-H ) :   0.9233 B( 19-O , 32-H ) :   0.8529

Dispersion correction           -0.046375225
FINAL SINGLE POINT ENERGY      -896.122807741807

DIPOLE MOMENT
-------------

Method             : SCF
Type of density    : Electron Density
Multiplicity       :   1
Irrep              :   0
Energy             :  -896.2197031192265513 Eh
Relativity type    :
Basis              : AO
                                X                 Y                 Z
Electronic contribution:    -11.272153760       3.046415152       0.840607477
Nuclear contribution   :     12.017028320      -4.054523776      -0.598045936
                        -----------------------------------------
Total Dipole Moment    :      0.744874560      -1.008108624       0.242561541
                        -----------------------------------------
Magnitude (a.u.)       :      1.276697775
Magnitude (Debye)      :      3.245107852

Rotational constants in cm-1:             0.022852             0.006950             0.005473
Rotational constants in MHz :           685.091626           208.364988           164.087206

                             ****ORCA TERMINATED NORMALLY****
TOTAL RUN TIME: 0 days 0 hours 0 minutes 34 seconds 34 msec
