                         Program Version 6.0.0  -   RELEASE  -
|  1> ! pbe def2-sv(p) def2/J RI DEFGRID1 loosescf d4 GCP(DFT/SV(P)) printgap
|  2> %output
|  3>     printlevel normal
|  4> end
|  5> * xyz 0 1
|  6> C -3.6353063067 0.1908781875 1.8804555149
|  7> C -3.0570156048 0.6004248031 0.5260444892
|  8> H -3.1136975949 1.6839504429 0.3964125541
|  9> C -1.6117699829 0.1673011518 0.383497007
| 10> C -1.2882317388 -1.2051915533 0.3955473198
| 11> C 0.0070364543 -1.6201914953 0.284746642
| 12> C 1.0586687671 -0.6859176247 0.1559329116
| 13> C 2.4012176509 -1.079764116 0.0430799083
| 14> C 3.4076346146 -0.1471113467 -0.0857387752
| 15> C 3.087582684 1.2251363655 -0.1049438576
| 16> C 1.7852815041 1.6279164133 0.0037052994
| 17> C 0.737208829 0.6968920899 0.1362053023
| 18> C -0.6113604704 1.092611049 0.2478754054
| 19> O 4.6770339537 -0.6392587032 -0.1885202294
| 20> C 5.7558624944 0.2669265582 -0.3222784073
| 21> C -3.8144252783 -0.0408414108 -0.6159149761
| 22> O -4.3349897337 -1.1344706926 -0.5837378236
| 23> O -3.8156328692 0.7201552593 -1.6991650955
| 24> H -2.9982320531 0.5599108699 2.6789540755
| 25> H -4.6342921485 0.6017062074 2.0022639276
| 26> H -3.6999150687 -0.8916287652 1.9492385177
| 27> H -2.0857406315 -1.9288566384 0.4798402517
| 28> H 0.2468138678 -2.673060386 0.2922976323
| 29> H 2.660136119 -2.1272636934 0.056361869
| 30> H 3.8656648174 1.9643708746 -0.205177914
| 31> H 1.5464238662 2.6808630656 -0.0115770943
| 32> H -0.8420843026 2.1478650654 0.2287086058
| 33> H 5.8302756658 0.9258371609 0.5466528748
| 34> H 5.6633545611 0.8614855641 -1.2348496702
| 35> H 6.6445862555 -0.3572672826 -0.3830484962
| 36> H -4.2611040329 0.2982383474 -2.4598217843
| 37> *
| 38>
| 39>                          ****END OF INPUT****

CARTESIAN COORDINATES (ANGSTROEM)
---------------------------------
  C     -3.635306    0.190878    1.880456
  C     -3.057016    0.600425    0.526044
  H     -3.113698    1.683950    0.396413
  C     -1.611770    0.167301    0.383497
  C     -1.288232   -1.205192    0.395547
  C      0.007036   -1.620191    0.284747
  C      1.058669   -0.685918    0.155933
  C      2.401218   -1.079764    0.043080
  C      3.407635   -0.147111   -0.085739
  C      3.087583    1.225136   -0.104944
  C      1.785282    1.627916    0.003705
  C      0.737209    0.696892    0.136205
  C     -0.611360    1.092611    0.247875
  O      4.677034   -0.639259   -0.188520
  C      5.755862    0.266927   -0.322278
  C     -3.814425   -0.040841   -0.615915
  O     -4.334990   -1.134471   -0.583738
  O     -3.815633    0.720155   -1.699165
  H     -2.998232    0.559911    2.678954
  H     -4.634292    0.601706    2.002264
  H     -3.699915   -0.891629    1.949239
  H     -2.085741   -1.928857    0.479840
  H      0.246814   -2.673060    0.292298
  H      2.660136   -2.127264    0.056362
  H      3.865665    1.964371   -0.205178
  H      1.546424    2.680863   -0.011577
  H     -0.842084    2.147865    0.228709
  H      5.830276    0.925837    0.546653
  H      5.663355    0.861486   -1.234850
  H      6.644586   -0.357267   -0.383048
  H     -4.261104    0.298238   -2.459822

 Total Charge           Charge          ....    0
 Multiplicity           Mult            ....    1
 Number of Electrons    NEL             ....  122
 Basis Dimension        Dim             ....  266

ORBITAL ENERGIES
----------------

  NO   OCC          E(Eh)            E(eV)
   0   2.0000     -18.799892      -511.5711
   1   2.0000     -18.790144      -511.3058
   2   2.0000     -18.737576      -509.8754
   3   2.0000     -10.012374      -272.4505
   4   2.0000      -9.953341      -270.8442
   5   2.0000      -9.943485      -270.5760
   6   2.0000      -9.911691      -269.7108
   7   2.0000      -9.903406      -269.4854
   8   2.0000      -9.900104      -269.3955
   9   2.0000      -9.897572      -269.3266
  10   2.0000      -9.897101      -269.3138
  11   2.0000      -9.896732      -269.3038
  12   2.0000      -9.891417      -269.1591
  13   2.0000      -9.889325      -269.1022
  14   2.0000      -9.888391      -269.0768
  15   2.0000      -9.884938      -268.9828
  16   2.0000      -9.880299      -268.8566
  17   2.0000      -1.008833       -27.4517
  18   2.0000      -0.969786       -26.3892
  19   2.0000      -0.911847       -24.8126
  20   2.0000      -0.795165       -21.6375
  21   2.0000      -0.757054       -20.6005
  22   2.0000      -0.717357       -19.5203
  23   2.0000      -0.697901       -18.9908
  24   2.0000      -0.664226       -18.0745
  25   2.0000      -0.657217       -17.8838
  26   2.0000      -0.619686       -16.8625
  27   2.0000      -0.610615       -16.6157
  28   2.0000      -0.567236       -15.4353
  29   2.0000      -0.550414       -14.9775
  30   2.0000      -0.539537       -14.6816
  31   2.0000      -0.517952       -14.0942
  32   2.0000      -0.484706       -13.1895
  33   2.0000      -0.465993       -12.6803
  34   2.0000      -0.460168       -12.5218
  35   2.0000      -0.434778       -11.8309
  36   2.0000      -0.423539       -11.5251
  37   2.0000      -0.418047       -11.3756
  38   2.0000      -0.414624       -11.2825
  39   2.0000      -0.409978       -11.1561
  40   2.0000      -0.395370       -10.7586
  41   2.0000      -0.393256       -10.7010
  42   2.0000      -0.378426       -10.2975
  43   2.0000      -0.371241       -10.1020
  44   2.0000      -0.361630        -9.8405
  45   2.0000      -0.357062        -9.7162
  46   2.0000      -0.351544        -9.5660
  47   2.0000      -0.343510        -9.3474
  48   2.0000      -0.343000        -9.3335
  49   2.0000      -0.326452        -8.8832
  50   2.0000      -0.313683        -8.5357
  51   2.0000      -0.311453        -8.4751
  52   2.0000      -0.298861        -8.1324
  53   2.0000      -0.292628        -7.9628
  54   2.0000      -0.280233        -7.6255
  55   2.0000      -0.273642        -7.4462
  56   2.0000      -0.270107        -7.3500
  57   2.0000      -0.248559        -6.7636
  58   2.0000      -0.221719        -6.0333
  59   2.0000      -0.212592        -5.7849
  60   2.0000      -0.181083        -4.9275
  61   0.0000      -0.067882        -1.8472
  62   0.0000      -0.036565        -0.9950
  63   0.0000      -0.015305        -0.4165
  64   0.0000      -0.000879        -0.0239
  65   0.0000       0.027249         0.7415

MULLIKEN ATOMIC CHARGES
-----------------------
   0 C :   -0.220245
   1 C :   -0.120788
   2 H :    0.074919
   3 C :    0.103974
   4 C :   -0.101347
   5 C :   -0.120687
   6 C :    0.171945
   7 C :   -0.224506
   8 C :    0.298523
   9 C :   -0.173378
  10 C :   -0.135599
  11 C :    0.177984
  12 C :   -0.212958
  13 O :   -0.270127
  14 C :   -0.115458
  15 C :    0.109216
  16 O :   -0.190971
  17 O :   -0.282462
  18 H :    0.108618
  19 H :    0.104809
  20 H :    0.121977
  21 H :    0.062780
  22 H :    0.036728
  23 H :    0.030831
  24 H :    0.039049
  25 H :    0.038122
  26 H :    0.023772
  27 H :    0.111752
  28 H :    0.111774
  29 H :    0.127206
  30 H :    0.314543
Sum of atomic charges:    0.0000000

LOEWDIN ATOMIC CHARGES
----------------------
   0 C :   -0.318421
   1 C :   -0.153706
   2 H :    0.132090
   3 C :   -0.037096
   4 C :   -0.117530
   5 C :   -0.110657
   6 C :   -0.020562
   7 C :   -0.138546
   8 C :    0.029387
   9 C :   -0.165002
  10 C :   -0.103991
  11 C :   -0.035938
  12 C :   -0.109495
  13 O :   -0.093011
  14 C :   -0.202591
  15 C :    0.037357
  16 O :   -0.170195
  17 O :   -0.199323
  18 H :    0.125234
  19 H :    0.123195
  20 H :    0.128404
  21 H :    0.130548
  22 H :    0.124739
  23 H :    0.130190
  24 H :    0.127374
  25 H :    0.124440
  26 H :    0.121557
  27 H :    0.109695
  28 H :    0.109684
  29 H :    0.123505
  30 H :    0.298668

  Mayer bond orders larger than 0.100000
B(  0-C ,  1-C ) :   1.1029 B(  0-C , 18-H ) :   0.9489 B(  0-C , 19-H ) :   0.9495
B(  0-C , 20-H ) :   0.9356 B(  1-C ,  2-H ) :   0.8699 B(  1-C ,  3-C ) :   1.0073
B(  1-C , 15-C ) :   0.9277 B(  3-C ,  4-C ) :   1.2477 B(  3-C , 12-C ) :   1.4592
B(  4-C ,  5-C ) :   1.4578 B(  4-C , 21-H ) :   0.9477 B(  5-C ,  6-C ) :   1.2135
B(  5-C , 22-H ) :   0.9683 B(  6-C ,  7-C ) :   1.2299 B(  6-C , 11-C ) :   1.2429
B(  7-C ,  8-C ) :   1.3826 B(  7-C , 10-C ) :   0.1003 B(  7-C , 23-H ) :   0.9727
B(  8-C ,  9-C ) :   1.1966 B(  8-C , 13-O ) :   1.1349 B(  9-C , 10-C ) :   1.4240
B(  9-C , 24-H ) :   0.9597 B( 10-C , 11-C ) :   1.2335 B( 10-C , 25-H ) :   0.9642
B( 11-C , 12-C ) :   1.2139 B( 12-C , 26-H ) :   0.9649 B( 13-O , 14-C ) :   0.9879
B( 14-C , 27-H ) :   0.9420 B( 14-C , 28-H ) :   0.9421 B( 14-C , 29-H ) :   0.9589
B( 15-C , 16-O ) :   2.0734 B( 15-C , 17-O ) :   1.3071 B( 17-O , 30-H ) :   0.8200

Dispersion correction           -0.038868974
FINAL SINGLE POINT ENERGY      -765.993697866540

DIPOLE MOMENT
-------------

Method             : SCF
Type of density    : Electron Density
Multiplicity       :   1
Irrep              :   0
Energy             :  -766.0879469945173241 Eh
Relativity type    :
Basis              : AO
                                X                 Y                 Z
Electronic contribution:     -3.729567003      -2.577797032      -4.324870582
Nuclear contribution   :      4.472585237       3.498923181       4.031540493
                        -----------------------------------------
Total Dipole Moment    :      0.743018234       0.921126148      -0.293330089
                        -----------------------------------------
Magnitude (a.u.)       :      1.219258798
Magnitude (Debye)      :      3.099109575

Rotational constants in cm-1:             0.048031             0.006714             0.006492
Rotational constants in MHz :          1439.942868           201.285032           194.614591

                             ****ORCA TERMINATED NORMALLY****
TOTAL RUN TIME: 0 days 0 hours 0 minutes 28 seconds 290 msec
