                         Program Version 6.0.0  -   RELEASE  -
|  1> ! pbe def2-sv(p) def2/J RI DEFGRID1 loosescf d4 GCP(DFT/SV(P)) printgap
|  2> %output
|  3>     printlevel normal
|  4> end
|  5> * xyz 0 1
|  6> C -3.3375839504 -1.093938791 0.2695969573
|  7> C -1.9741647698 -0.489597072 0.5795451176
|  8> C -1.3398150614 0.1215099458 -0.6789169009
|  9> C 7.68399e-05 0.7089907984 -0.3286872323
| 10> O 0.2061202026 1.8819474235 -0.0886211097
| 11> O 0.9425566374 -0.2200016432 -0.2714952012
| 12> C 2.26795544 0.1849984495 0.1111004745
| 13> C 3.0914577798 -1.0634108732 0.3620532452
| 14> H -4.0134420408 -0.3337561956 -0.1136167542
| 15> H -3.2444711491 -1.8806246279 -0.4745288667
| 16> H -3.7715354834 -1.5189594567 1.1704496079
| 17> H -1.3089108455 -1.2605421024 0.9720590998
| 18> H -2.0779497857 0.2881640311 1.339136235
| 19> H -1.9771298885 0.9139951123 -1.0698672767
| 20> H -1.2012452275 -0.6555095385 -1.4297241093
| 21> H 2.6879219756 0.7897147972 -0.6992573178
| 22> H 2.1943704157 0.8146992965 1.0038458615
| 23> H 4.1024947682 -0.7780417028 0.6327938868
| 24> H 2.6547829325 -1.6436564829 1.1694393189
| 25> H 3.1184809711 -1.6754760721 -0.534380484
| 26> *
| 27>
| 28>                          ****END OF INPUT****

CARTESIAN COORDINATES (ANGSTROEM)
---------------------------------
  C     -3.337584   -1.093939    0.269597
  C     -1.974165   -0.489597    0.579545
  C     -1.339815    0.121510   -0.678917
  C      0.000077    0.708991   -0.328687
  O      0.206120    1.881947   -0.088621
  O      0.942557   -0.220002   -0.271495
  C      2.267955    0.184998    0.111100
  C      3.091458   -1.063411    0.362053
  H     -4.013442   -0.333756   -0.113617
  H     -3.244471   -1.880625   -0.474529
  H     -3.771535   -1.518959    1.170450
  H     -1.308911   -1.260542    0.972059
  H     -2.077950    0.288164    1.339136
  H     -1.977130    0.913995   -1.069867
  H     -1.201245   -0.655510   -1.429724
  H      2.687922    0.789715   -0.699257
  H      2.194370    0.814699    1.003846
  H      4.102495   -0.778042    0.632794
  H      2.654783   -1.643656    1.169439
  H      3.118481   -1.675476   -0.534380

 Total Charge           Charge          ....    0
 Multiplicity           Mult            ....    1
 Number of Electrons    NEL             ....   64
 Basis Dimension        Dim             ....  136

ORBITAL ENERGIES
----------------

  NO   OCC          E(Eh)            E(eV)
   0   2.0000     -18.795105      -511.4408
   1   2.0000     -18.729229      -509.6482
   2   2.0000      -9.999314      -272.0952
   3   2.0000      -9.945126      -270.6206
   4   2.0000      -9.895657      -269.2745
   5   2.0000      -9.893895      -269.2266
   6   2.0000      -9.888402      -269.0771
   7   2.0000      -9.880151      -268.8526
   8   2.0000      -1.002252       -27.2727
   9   2.0000      -0.904241       -24.6056
  10   2.0000      -0.729554       -19.8522
  11   2.0000      -0.699256       -19.0277
  12   2.0000      -0.639123       -17.3914
  13   2.0000      -0.578872       -15.7519
  14   2.0000      -0.534464       -14.5435
  15   2.0000      -0.506388       -13.7795
  16   2.0000      -0.444073       -12.0838
  17   2.0000      -0.440288       -11.9809
  18   2.0000      -0.426098       -11.5947
  19   2.0000      -0.396156       -10.7800
  20   2.0000      -0.389683       -10.6038
  21   2.0000      -0.363810        -9.8998
  22   2.0000      -0.360800        -9.8179
  23   2.0000      -0.351603        -9.5676
  24   2.0000      -0.343969        -9.3599
  25   2.0000      -0.322664        -8.7801
  26   2.0000      -0.317345        -8.6354
  27   2.0000      -0.301007        -8.1908
  28   2.0000      -0.298164        -8.1135
  29   2.0000      -0.290954        -7.9173
  30   2.0000      -0.253662        -6.9025
  31   2.0000      -0.211608        -5.7582
  32   0.0000      -0.016022        -0.4360
  33   0.0000       0.037216         1.0127
  34   0.0000       0.048374         1.3163
  35   0.0000       0.075838         2.0637
  36   0.0000       0.078469         2.1352

MULLIKEN ATOMIC CHARGES
-----------------------
   0 C :   -0.242480
   1 C :   -0.242859
   2 C :   -0.112239
   3 C :    0.110566
   4 O :   -0.215825
   5 O :   -0.245577
   6 C :   -0.028003
   7 C :   -0.272565
   8 H :    0.101371
   9 H :    0.098890
  10 H :    0.107004
  11 H :    0.098323
  12 H :    0.102326
  13 H :    0.097623
  14 H :    0.094551
  15 H :    0.103653
  16 H :    0.106675
  17 H :    0.110853
  18 H :    0.113655
  19 H :    0.114057
Sum of atomic charges:    0.0000000

LOEWDIN ATOMIC CHARGES
----------------------
   0 C :   -0.339127
   1 C :   -0.226014
   2 C :   -0.241766
   3 C :    0.034425
   4 O :   -0.173385
   5 O :   -0.072160
   6 C :   -0.108544
   7 C :   -0.351024
   8 H :    0.119346
   9 H :    0.118293
  10 H :    0.121760
  11 H :    0.118256
  12 H :    0.121750
  13 H :    0.133184
  14 H :    0.130458
  15 H :    0.115863
  16 H :    0.116528
  17 H :    0.130138
  18 H :    0.125778
  19 H :    0.126242

  Mayer bond orders larger than 0.100000
B(  0-C ,  1-C ) :   1.1581 B(  0-C ,  8-H ) :   0.9530 B(  0-C ,  9-H ) :   0.9534
B(  0-C , 10-H ) :   0.9517 B(  1-C ,  2-C ) :   1.1282 B(  1-C , 11-H ) :   0.9263
B(  1-C , 12-H ) :   0.9271 B(  2-C ,  3-C ) :   1.0344 B(  2-C , 13-H ) :   0.9041
B(  2-C , 14-H ) :   0.8988 B(  3-C ,  4-O ) :   2.0531 B(  3-C ,  5-O ) :   1.1996
B(  5-O ,  6-C ) :   0.9123 B(  6-C ,  7-C ) :   1.1501 B(  6-C , 15-H ) :   0.9353
B(  6-C , 16-H ) :   0.9270 B(  7-C , 17-H ) :   0.9445 B(  7-C , 18-H ) :   0.9510
B(  7-C , 19-H ) :   0.9489

Dispersion correction           -0.014386729
FINAL SINGLE POINT ENERGY      -385.457501631169

DIPOLE MOMENT
-------------

Method             : SCF
Type of density    : Electron Density
Multiplicity       :   1
Irrep              :   0
Energy             :  -385.5324282129794824 Eh
Relativity type    :
Basis              : AO
                                X                 Y                 Z
Electronic contribution:      2.820834994       5.690633189      -1.808405858
Nuclear contribution   :     -2.644202181      -6.486226659       1.839423474
                        -----------------------------------------
Total Dipole Moment    :      0.176632814      -0.795593469       0.031017617
                        -----------------------------------------
Magnitude (a.u.)       :      0.815555156
Magnitude (Debye)      :      2.072976464

Rotational constants in cm-1:             0.124453             0.032695             0.027723
Rotational constants in MHz :          3730.994645           980.181663           831.104800

                             ****ORCA TERMINATED NORMALLY****
TOTAL RUN TIME: 0 days 0 hours 0 minutes 10 seconds 203 msec
