                         Program Version 6.0.0  -   RELEASE  -
|  1> ! r2scan-3c def2/J RI DEFGRID2 scfconv6 printgap
|  2> %output
|  3>     printlevel normal
|  4> end
|  5> * xyz 0 1
|  6> C -3.6818216354 -0.6719594531 0.3034900399
|  7> C -2.4756572527 0.141687776 -0.1473716011
|  8> C -1.1669961619 -0.5280493296 0.2621681929
|  9> C 0.0404516819 0.2517222431 -0.1855315724
| 10> O 0.0184183247 1.2672813817 -0.8493027284
| 11> O 1.165952181 -0.3125252695 0.2370419774
| 12> C 2.4066368124 0.3213799687 -0.11950909
| 13> C 3.5389872435 -0.4767807133 0.4966176916
| 14> H -3.661986357 -1.6626573207 -0.1435592884
| 15> H -3.6849061874 -0.7811603632 1.3850691806
| 16> H -4.6021003302 -0.1779494505 0.0047782411
| 17> H -2.5153349338 1.1419254272 0.2877874299
| 18> H -2.4888217591 0.2622391781 -1.2320922102
| 19> H -1.0936225913 -1.5275711991 -0.1715287671
| 20> H -1.1090370312 -0.6413650548 1.3462391959
| 21> H 2.4773306069 0.3522475247 -1.2117774288
| 22> H 2.3864620681 1.3522819995 0.2490986213
| 23> H 4.4859176729 -0.0140929331 0.2391957832
| 24> H 3.4322668439 -0.5001568255 1.5769888394
| 25> H 3.5226529831 -1.4955247397 0.1211668381
| 26> *
| 27>
| 28>                          ****END OF INPUT****

CARTESIAN COORDINATES (ANGSTROEM)
---------------------------------
  C     -3.681822   -0.671959    0.303490
  C     -2.475657    0.141688   -0.147372
  C     -1.166996   -0.528049    0.262168
  C      0.040452    0.251722   -0.185532
  O      0.018418    1.267281   -0.849303
  O      1.165952   -0.312525    0.237042
  C      2.406637    0.321380   -0.119509
  C      3.538987   -0.476781    0.496618
  H     -3.661986   -1.662657   -0.143559
  H     -3.684906   -0.781160    1.385069
  H     -4.602100   -0.177949    0.004778
  H     -2.515335    1.141925    0.287787
  H     -2.488822    0.262239   -1.232092
  H     -1.093623   -1.527571   -0.171529
  H     -1.109037   -0.641365    1.346239
  H      2.477331    0.352248   -1.211777
  H      2.386462    1.352282    0.249099
  H      4.485918   -0.014093    0.239196
  H      3.432267   -0.500157    1.576989
  H      3.522653   -1.495525    0.121167

 Total Charge           Charge          ....    0
 Multiplicity           Mult            ....    1
 Number of Electrons    NEL             ....   64
 Basis Dimension        Dim             ....  222

ORBITAL ENERGIES
----------------

  NO   OCC          E(Eh)            E(eV)
   0   2.0000     -18.994206      -516.8586
   1   2.0000     -18.928209      -515.0627
   2   2.0000     -10.150807      -276.2175
   3   2.0000     -10.090894      -274.5872
   4   2.0000     -10.041830      -273.2521
   5   2.0000     -10.031444      -272.9695
   6   2.0000     -10.028155      -272.8800
   7   2.0000     -10.019009      -272.6311
   8   2.0000      -1.070174       -29.1209
   9   2.0000      -0.974238       -26.5104
  10   2.0000      -0.771261       -20.9871
  11   2.0000      -0.743063       -20.2198
  12   2.0000      -0.680388       -18.5143
  13   2.0000      -0.614022       -16.7084
  14   2.0000      -0.562150       -15.2969
  15   2.0000      -0.528292       -14.3755
  16   2.0000      -0.468486       -12.7481
  17   2.0000      -0.464685       -12.6447
  18   2.0000      -0.440279       -11.9806
  19   2.0000      -0.432079       -11.7575
  20   2.0000      -0.393954       -10.7200
  21   2.0000      -0.387367       -10.5408
  22   2.0000      -0.373887       -10.1740
  23   2.0000      -0.369904       -10.0656
  24   2.0000      -0.356182        -9.6922
  25   2.0000      -0.328161        -8.9297
  26   2.0000      -0.324681        -8.8350
  27   2.0000      -0.313666        -8.5353
  28   2.0000      -0.309000        -8.4083
  29   2.0000      -0.303264        -8.2522
  30   2.0000      -0.270205        -7.3527
  31   2.0000      -0.234937        -6.3930
  32   0.0000      -0.011867        -0.3229
  33   0.0000       0.077128         2.0988
  34   0.0000       0.093076         2.5327
  35   0.0000       0.102249         2.7823
  36   0.0000       0.118491         3.2243

MULLIKEN ATOMIC CHARGES
-----------------------
   0 C :   -0.465553
   1 C :   -0.225860
   2 C :   -0.293721
   3 C :    0.350070
   4 O :   -0.423143
   5 O :   -0.159410
   6 C :   -0.152491
   7 C :   -0.441306
   8 H :    0.140137
   9 H :    0.139746
  10 H :    0.150418
  11 H :    0.147497
  12 H :    0.150827
  13 H :    0.160235
  14 H :    0.159889
  15 H :    0.154941
  16 H :    0.156730
  17 H :    0.147188
  18 H :    0.151928
  19 H :    0.151879
Sum of atomic charges:    0.0000000

LOEWDIN ATOMIC CHARGES
----------------------
   0 C :   -0.422072
   1 C :   -0.297010
   2 C :   -0.233170
   3 C :    0.360680
   4 O :   -0.428943
   5 O :   -0.599776
   6 C :    0.033282
   7 C :   -0.386716
   8 H :    0.149523
   9 H :    0.149477
  10 H :    0.152588
  11 H :    0.161513
  12 H :    0.163000
  13 H :    0.181480
  14 H :    0.181000
  15 H :    0.178219
  16 H :    0.179153
  17 H :    0.159314
  18 H :    0.159240
  19 H :    0.159217

  Mayer bond orders larger than 0.100000
B(  0-C ,  1-C ) :   0.8766 B(  0-C ,  8-H ) :   0.9835 B(  0-C ,  9-H ) :   0.9822
B(  0-C , 10-H ) :   0.9761 B(  1-C ,  2-C ) :   0.9708 B(  1-C , 11-H ) :   0.9635
B(  1-C , 12-H ) :   0.9630 B(  2-C ,  3-C ) :   1.0049 B(  2-C , 13-H ) :   0.9442
B(  2-C , 14-H ) :   0.9508 B(  3-C ,  4-O ) :   1.8183 B(  3-C ,  5-O ) :   1.1003
B(  5-O ,  6-C ) :   0.8031 B(  6-C ,  7-C ) :   0.9402 B(  6-C , 15-H ) :   0.9526
B(  6-C , 16-H ) :   0.9544 B(  7-C , 17-H ) :   0.9687 B(  7-C , 18-H ) :   0.9728
B(  7-C , 19-H ) :   0.9723

Dispersion correction           -0.004775233
FINAL SINGLE POINT ENERGY      -386.236979943090

DIPOLE MOMENT
-------------

Method             : SCF
Type of density    : Electron Density
Multiplicity       :   1
Irrep              :   0
Energy             :  -386.2438132044338772 Eh
Relativity type    :
Basis              : AO
                                X                 Y                 Z
Electronic contribution:      2.993653984       2.864184918      -1.891642591
Nuclear contribution   :     -2.657319161      -3.449351297       2.290711651
                        -----------------------------------------
Total Dipole Moment    :      0.336334823      -0.585166379       0.399069060
                        -----------------------------------------
Magnitude (a.u.)       :      0.784089867
Magnitude (Debye)      :      1.992998055

Rotational constants in cm-1:             0.211331             0.027029             0.024514
Rotational constants in MHz :          6335.538638           810.295367           734.922924

                             ****ORCA TERMINATED NORMALLY****
TOTAL RUN TIME: 0 days 0 hours 0 minutes 28 seconds 956 msec
