                         Program Version 6.0.0  -   RELEASE  -
|  1> ! r2scan-3c def2/J RI DEFGRID2 scfconv6 printgap
|  2> %output
|  3>     printlevel normal
|  4> end
|  5> %cpcm
|  6>     smd true
|  7>     smdsolvent "water"
|  8> end
|  9> * xyz 0 1
| 10> C -3.6818216354 -0.6719594531 0.3034900399
| 11> C -2.4756572527 0.141687776 -0.1473716011
| 12> C -1.1669961619 -0.5280493296 0.2621681929
| 13> C 0.0404516819 0.2517222431 -0.1855315724
| 14> O 0.0184183247 1.2672813817 -0.8493027284
| 15> O 1.165952181 -0.3125252695 0.2370419774
| 16> C 2.4066368124 0.3213799687 -0.11950909
| 17> C 3.5389872435 -0.4767807133 0.4966176916
| 18> H -3.661986357 -1.6626573207 -0.1435592884
| 19> H -3.6849061874 -0.7811603632 1.3850691806
| 20> H -4.6021003302 -0.1779494505 0.0047782411
| 21> H -2.5153349338 1.1419254272 0.2877874299
| 22> H -2.4888217591 0.2622391781 -1.2320922102
| 23> H -1.0936225913 -1.5275711991 -0.1715287671
| 24> H -1.1090370312 -0.6413650548 1.3462391959
| 25> H 2.4773306069 0.3522475247 -1.2117774288
| 26> H 2.3864620681 1.3522819995 0.2490986213
| 27> H 4.4859176729 -0.0140929331 0.2391957832
| 28> H 3.4322668439 -0.5001568255 1.5769888394
| 29> H 3.5226529831 -1.4955247397 0.1211668381
| 30> *
| 31>
| 32>                          ****END OF INPUT****

CARTESIAN COORDINATES (ANGSTROEM)
---------------------------------
  C     -3.681822   -0.671959    0.303490
  C     -2.475657    0.141688   -0.147372
  C     -1.166996   -0.528049    0.262168
  C      0.040452    0.251722   -0.185532
  O      0.018418    1.267281   -0.849303
  O      1.165952   -0.312525    0.237042
  C      2.406637    0.321380   -0.119509
  C      3.538987   -0.476781    0.496618
  H     -3.661986   -1.662657   -0.143559
  H     -3.684906   -0.781160    1.385069
  H     -4.602100   -0.177949    0.004778
  H     -2.515335    1.141925    0.287787
  H     -2.488822    0.262239   -1.232092
  H     -1.093623   -1.527571   -0.171529
  H     -1.109037   -0.641365    1.346239
  H      2.477331    0.352248   -1.211777
  H      2.386462    1.352282    0.249099
  H      4.485918   -0.014093    0.239196
  H      3.432267   -0.500157    1.576989
  H      3.522653   -1.495525    0.121167

 Total Charge           Charge          ....    0
 Multiplicity           Mult            ....    1
 Number of Electrons    NEL             ....   64
 Basis Dimension        Dim             ....  222

ORBITAL ENERGIES
----------------

  NO   OCC          E(Eh)            E(eV)
   0   2.0000     -19.000611      -517.0329
   1   2.0000     -18.944430      -515.5041
   2   2.0000     -10.161805      -276.5168
   3   2.0000     -10.083702      -274.3915
   4   2.0000     -10.035630      -273.0834
   5   2.0000     -10.023915      -272.7646
   6   2.0000     -10.018668      -272.6218
   7   2.0000     -10.010562      -272.4012
   8   2.0000      -1.078226       -29.3400
   9   2.0000      -0.988290       -26.8927
  10   2.0000      -0.767054       -20.8726
  11   2.0000      -0.736006       -20.0277
  12   2.0000      -0.674239       -18.3470
  13   2.0000      -0.607867       -16.5409
  14   2.0000      -0.556627       -15.1466
  15   2.0000      -0.527661       -14.3584
  16   2.0000      -0.468926       -12.7601
  17   2.0000      -0.467044       -12.7089
  18   2.0000      -0.445646       -12.1266
  19   2.0000      -0.432476       -11.7683
  20   2.0000      -0.390817       -10.6347
  21   2.0000      -0.380799       -10.3621
  22   2.0000      -0.371789       -10.1169
  23   2.0000      -0.360254        -9.8030
  24   2.0000      -0.347731        -9.4622
  25   2.0000      -0.324130        -8.8200
  26   2.0000      -0.323876        -8.8131
  27   2.0000      -0.312516        -8.5040
  28   2.0000      -0.305152        -8.3036
  29   2.0000      -0.298194        -8.1143
  30   2.0000      -0.275163        -7.4876
  31   2.0000      -0.252157        -6.8616
  32   0.0000      -0.020332        -0.5533
  33   0.0000       0.080249         2.1837
  34   0.0000       0.099334         2.7030
  35   0.0000       0.113179         3.0797
  36   0.0000       0.126990         3.4556

MULLIKEN ATOMIC CHARGES
-----------------------
   0 C :   -0.515349
   1 C :   -0.246345
   2 C :   -0.294625
   3 C :    0.394534
   4 O :   -0.508763
   5 O :   -0.177422
   6 C :   -0.156055
   7 C :   -0.491053
   8 H :    0.156242
   9 H :    0.155833
  10 H :    0.160088
  11 H :    0.154074
  12 H :    0.153505
  13 H :    0.188739
  14 H :    0.186325
  15 H :    0.170886
  16 H :    0.170677
  17 H :    0.169039
  18 H :    0.164931
  19 H :    0.164739
Sum of atomic charges:    0.0000000

LOEWDIN ATOMIC CHARGES
----------------------
   0 C :   -0.426864
   1 C :   -0.300240
   2 C :   -0.229863
   3 C :    0.373216
   4 O :   -0.490695
   5 O :   -0.602559
   6 C :    0.035309
   7 C :   -0.389978
   8 H :    0.154383
   9 H :    0.154393
  10 H :    0.154886
  11 H :    0.160605
  12 H :    0.161063
  13 H :    0.193296
  14 H :    0.192287
  15 H :    0.183565
  16 H :    0.183950
  17 H :    0.168151
  18 H :    0.162563
  19 H :    0.162531

  Mayer bond orders larger than 0.100000
B(  0-C ,  1-C ) :   0.8793 B(  0-C ,  8-H ) :   0.9808 B(  0-C ,  9-H ) :   0.9797
B(  0-C , 10-H ) :   0.9729 B(  1-C ,  2-C ) :   0.9450 B(  1-C , 11-H ) :   0.9663
B(  1-C , 12-H ) :   0.9649 B(  2-C ,  3-C ) :   1.0131 B(  2-C , 13-H ) :   0.9300
B(  2-C , 14-H ) :   0.9370 B(  3-C ,  4-O ) :   1.7547 B(  3-C ,  5-O ) :   1.1257
B(  5-O ,  6-C ) :   0.7896 B(  6-C ,  7-C ) :   0.9408 B(  6-C , 15-H ) :   0.9451
B(  6-C , 16-H ) :   0.9471 B(  7-C , 17-H ) :   0.9620 B(  7-C , 18-H ) :   0.9710
B(  7-C , 19-H ) :   0.9703

Dispersion correction           -0.004775233
FINAL SINGLE POINT ENERGY      -386.242615155683

DIPOLE MOMENT
-------------

Method             : SCF
Type of density    : Electron Density
Multiplicity       :   1
Irrep              :   0
Energy             :  -386.2494484170267697 Eh
Relativity type    :
Basis              : AO
                                X                 Y                 Z
Electronic contribution:      3.094770016       2.567153040      -1.696056224
Nuclear contribution   :     -2.657319161      -3.449351297       2.290711651
                        -----------------------------------------
Total Dipole Moment    :      0.437450855      -0.882198257       0.594655427
                        -----------------------------------------
Magnitude (a.u.)       :      1.150326950
Magnitude (Debye)      :      2.923898741

Rotational constants in cm-1:             0.211331             0.027029             0.024514
Rotational constants in MHz :          6335.538638           810.295367           734.922924

                             ****ORCA TERMINATED NORMALLY****
TOTAL RUN TIME: 0 days 0 hours 0 minutes 37 seconds 229 msec
