                         Program Version 6.0.0  -   RELEASE  -
|  1> ! r2scan-3c def2/J RI DEFGRID2 scfconv6 printgap
|  2> %output
|  3>     printlevel normal
|  4> end
|  5> * xyz 0 1
|  6> C -2.6112022247 -0.209824218 1.2461285329
|  7> C -2.524909026 0.0724891084 -0.2489501572
|  8> C -1.2514271103 -0.5189388133 -0.8616122124
|  9> C -0.0257743682 0.1808621375 -0.332142281
| 10> O 0.1477167292 1.3817893927 -0.3481781221
| 11> O 0.8487419855 -0.6823087584 0.1702036287
| 12> C 2.0904200981 -0.1804800565 0.6921231196
| 13> C 3.1432750802 -0.0850518687 -0.4013750399
| 14> H -3.531038806 0.1981467239 1.6564648963
| 15> H -2.5918141813 -1.2805322654 1.4347692426
| 16> H -1.771924809 0.2465880976 1.7679530254
| 17> H -2.525608595 1.1506955905 -0.4197157916
| 18> H -3.3906636637 -0.3566479131 -0.7538641056
| 19> H -1.267646863 -0.3726600222 -1.9430397198
| 20> H -1.1672237553 -1.5825428739 -0.6422083124
| 21> H 1.9093215991 0.8014566788 1.1400621703
| 22> H 2.3784916874 -0.9001214264 1.4590577386
| 23> H 4.0861493973 0.2301301688 0.0333702674
| 24> H 3.2731956239 -1.0516968863 -0.8803961738
| 25> H 2.8383147457 0.643351851 -1.1495207293
| 26> *
| 27>
| 28>                          ****END OF INPUT****

CARTESIAN COORDINATES (ANGSTROEM)
---------------------------------
  C     -2.611202   -0.209824    1.246129
  C     -2.524909    0.072489   -0.248950
  C     -1.251427   -0.518939   -0.861612
  C     -0.025774    0.180862   -0.332142
  O      0.147717    1.381789   -0.348178
  O      0.848742   -0.682309    0.170204
  C      2.090420   -0.180480    0.692123
  C      3.143275   -0.085052   -0.401375
  H     -3.531039    0.198147    1.656465
  H     -2.591814   -1.280532    1.434769
  H     -1.771925    0.246588    1.767953
  H     -2.525609    1.150696   -0.419716
  H     -3.390664   -0.356648   -0.753864
  H     -1.267647   -0.372660   -1.943040
  H     -1.167224   -1.582543   -0.642208
  H      1.909322    0.801457    1.140062
  H      2.378492   -0.900121    1.459058
  H      4.086149    0.230130    0.033370
  H      3.273196   -1.051697   -0.880396
  H      2.838315    0.643352   -1.149521

 Total Charge           Charge          ....    0
 Multiplicity           Mult            ....    1
 Number of Electrons    NEL             ....   64
 Basis Dimension        Dim             ....  222

ORBITAL ENERGIES
----------------

  NO   OCC          E(Eh)            E(eV)
   0   2.0000     -18.996682      -516.9260
   1   2.0000     -18.927404      -515.0408
   2   2.0000     -10.151307      -276.2311
   3   2.0000     -10.090563      -274.5782
   4   2.0000     -10.040044      -273.2035
   5   2.0000     -10.033373      -273.0220
   6   2.0000     -10.028953      -272.9017
   7   2.0000     -10.018820      -272.6260
   8   2.0000      -1.070957       -29.1422
   9   2.0000      -0.975231       -26.5374
  10   2.0000      -0.772577       -21.0229
  11   2.0000      -0.739244       -20.1159
  12   2.0000      -0.677515       -18.4361
  13   2.0000      -0.624461       -16.9925
  14   2.0000      -0.565268       -15.3817
  15   2.0000      -0.519447       -14.1349
  16   2.0000      -0.473752       -12.8914
  17   2.0000      -0.455211       -12.3869
  18   2.0000      -0.440558       -11.9882
  19   2.0000      -0.417880       -11.3711
  20   2.0000      -0.411995       -11.2109
  21   2.0000      -0.390364       -10.6223
  22   2.0000      -0.376066       -10.2333
  23   2.0000      -0.365384        -9.9426
  24   2.0000      -0.351214        -9.5570
  25   2.0000      -0.344013        -9.3611
  26   2.0000      -0.316939        -8.6244
  27   2.0000      -0.309836        -8.4311
  28   2.0000      -0.308431        -8.3928
  29   2.0000      -0.302744        -8.2381
  30   2.0000      -0.270968        -7.3734
  31   2.0000      -0.236088        -6.4243
  32   0.0000      -0.015097        -0.4108
  33   0.0000       0.074913         2.0385
  34   0.0000       0.093554         2.5457
  35   0.0000       0.109450         2.9783
  36   0.0000       0.117405         3.1947

MULLIKEN ATOMIC CHARGES
-----------------------
   0 C :   -0.493720
   1 C :   -0.217156
   2 C :   -0.301971
   3 C :    0.350501
   4 O :   -0.429575
   5 O :   -0.173937
   6 C :   -0.140559
   7 C :   -0.466470
   8 H :    0.148398
   9 H :    0.146243
  10 H :    0.156699
  11 H :    0.161620
  12 H :    0.144156
  13 H :    0.165136
  14 H :    0.165162
  15 H :    0.169497
  16 H :    0.147509
  17 H :    0.146849
  18 H :    0.151668
  19 H :    0.169949
Sum of atomic charges:   -0.0000000

LOEWDIN ATOMIC CHARGES
----------------------
   0 C :   -0.416674
   1 C :   -0.293344
   2 C :   -0.231891
   3 C :    0.355287
   4 O :   -0.438960
   5 O :   -0.596104
   6 C :    0.026275
   7 C :   -0.389766
   8 H :    0.152745
   9 H :    0.150516
  10 H :    0.155950
  11 H :    0.167546
  12 H :    0.152748
  13 H :    0.181428
  14 H :    0.177209
  15 H :    0.188803
  16 H :    0.177589
  17 H :    0.159084
  18 H :    0.157144
  19 H :    0.164414

  Mayer bond orders larger than 0.100000
B(  0-C ,  1-C ) :   0.9047 B(  0-C ,  8-H ) :   0.9688 B(  0-C ,  9-H ) :   0.9818
B(  0-C , 10-H ) :   0.9730 B(  1-C ,  2-C ) :   0.8885 B(  1-C , 11-H ) :   0.9673
B(  1-C , 12-H ) :   0.9659 B(  2-C ,  3-C ) :   0.9405 B(  2-C , 13-H ) :   0.9349
B(  2-C , 14-H ) :   1.0055 B(  3-C ,  4-O ) :   1.8307 B(  3-C ,  5-O ) :   1.0490
B(  5-O ,  6-C ) :   0.8181 B(  6-C ,  7-C ) :   0.9399 B(  6-C , 15-H ) :   0.9665
B(  6-C , 16-H ) :   0.9606 B(  7-C , 17-H ) :   0.9657 B(  7-C , 18-H ) :   0.9735
B(  7-C , 19-H ) :   0.9715

Dispersion correction           -0.005131532
FINAL SINGLE POINT ENERGY      -386.236585144481

DIPOLE MOMENT
-------------

Method             : SCF
Type of density    : Electron Density
Multiplicity       :   1
Irrep              :   0
Energy             :  -386.2431910542810556 Eh
Relativity type    :
Basis              : AO
                                X                 Y                 Z
Electronic contribution:      1.809027243       1.432974631      -1.488512173
Nuclear contribution   :     -1.636817676      -2.122861705       1.594995534
                        -----------------------------------------
Total Dipole Moment    :      0.172209567      -0.689887074       0.106483361
                        -----------------------------------------
Magnitude (a.u.)       :      0.718984712
Magnitude (Debye)      :      1.827513904

Rotational constants in cm-1:             0.155005             0.034058             0.032799
Rotational constants in MHz :          4646.930162          1021.040485           983.281542

                             ****ORCA TERMINATED NORMALLY****
TOTAL RUN TIME: 0 days 0 hours 0 minutes 32 seconds 883 msec
