                         Program Version 6.0.0  -   RELEASE  -
|  1> ! r2scan-3c def2/J RI DEFGRID2 scfconv6 printgap
|  2> %output
|  3>     printlevel normal
|  4> end
|  5> %cpcm
|  6>     smd true
|  7>     smdsolvent "water"
|  8> end
|  9> * xyz 0 1
| 10> C -2.6112022247 -0.209824218 1.2461285329
| 11> C -2.524909026 0.0724891084 -0.2489501572
| 12> C -1.2514271103 -0.5189388133 -0.8616122124
| 13> C -0.0257743682 0.1808621375 -0.332142281
| 14> O 0.1477167292 1.3817893927 -0.3481781221
| 15> O 0.8487419855 -0.6823087584 0.1702036287
| 16> C 2.0904200981 -0.1804800565 0.6921231196
| 17> C 3.1432750802 -0.0850518687 -0.4013750399
| 18> H -3.531038806 0.1981467239 1.6564648963
| 19> H -2.5918141813 -1.2805322654 1.4347692426
| 20> H -1.771924809 0.2465880976 1.7679530254
| 21> H -2.525608595 1.1506955905 -0.4197157916
| 22> H -3.3906636637 -0.3566479131 -0.7538641056
| 23> H -1.267646863 -0.3726600222 -1.9430397198
| 24> H -1.1672237553 -1.5825428739 -0.6422083124
| 25> H 1.9093215991 0.8014566788 1.1400621703
| 26> H 2.3784916874 -0.9001214264 1.4590577386
| 27> H 4.0861493973 0.2301301688 0.0333702674
| 28> H 3.2731956239 -1.0516968863 -0.8803961738
| 29> H 2.8383147457 0.643351851 -1.1495207293
| 30> *
| 31>
| 32>                          ****END OF INPUT****

CARTESIAN COORDINATES (ANGSTROEM)
---------------------------------
  C     -2.611202   -0.209824    1.246129
  C     -2.524909    0.072489   -0.248950
  C     -1.251427   -0.518939   -0.861612
  C     -0.025774    0.180862   -0.332142
  O      0.147717    1.381789   -0.348178
  O      0.848742   -0.682309    0.170204
  C      2.090420   -0.180480    0.692123
  C      3.143275   -0.085052   -0.401375
  H     -3.531039    0.198147    1.656465
  H     -2.591814   -1.280532    1.434769
  H     -1.771925    0.246588    1.767953
  H     -2.525609    1.150696   -0.419716
  H     -3.390664   -0.356648   -0.753864
  H     -1.267647   -0.372660   -1.943040
  H     -1.167224   -1.582543   -0.642208
  H      1.909322    0.801457    1.140062
  H      2.378492   -0.900121    1.459058
  H      4.086149    0.230130    0.033370
  H      3.273196   -1.051697   -0.880396
  H      2.838315    0.643352   -1.149521

 Total Charge           Charge          ....    0
 Multiplicity           Mult            ....    1
 Number of Electrons    NEL             ....   64
 Basis Dimension        Dim             ....  222

ORBITAL ENERGIES
----------------

  NO   OCC          E(Eh)            E(eV)
   0   2.0000     -19.002853      -517.0939
   1   2.0000     -18.943240      -515.4718
   2   2.0000     -10.162181      -276.5270
   3   2.0000     -10.082973      -274.3717
   4   2.0000     -10.034898      -273.0635
   5   2.0000     -10.027900      -272.8730
   6   2.0000     -10.018460      -272.6162
   7   2.0000     -10.011488      -272.4264
   8   2.0000      -1.078676       -29.3523
   9   2.0000      -0.988984       -26.9116
  10   2.0000      -0.768936       -20.9238
  11   2.0000      -0.732923       -19.9438
  12   2.0000      -0.672462       -18.2986
  13   2.0000      -0.619547       -16.8587
  14   2.0000      -0.559565       -15.2265
  15   2.0000      -0.518417       -14.1068
  16   2.0000      -0.474127       -12.9017
  17   2.0000      -0.461574       -12.5601
  18   2.0000      -0.441452       -12.0125
  19   2.0000      -0.421334       -11.4651
  20   2.0000      -0.406676       -11.0662
  21   2.0000      -0.386113       -10.5067
  22   2.0000      -0.369452       -10.0533
  23   2.0000      -0.361409        -9.8344
  24   2.0000      -0.350388        -9.5346
  25   2.0000      -0.340389        -9.2625
  26   2.0000      -0.310617        -8.4523
  27   2.0000      -0.305073        -8.3015
  28   2.0000      -0.303356        -8.2547
  29   2.0000      -0.300848        -8.1865
  30   2.0000      -0.278634        -7.5820
  31   2.0000      -0.252260        -6.8643
  32   0.0000      -0.023289        -0.6337
  33   0.0000       0.076852         2.0913
  34   0.0000       0.100726         2.7409
  35   0.0000       0.118260         3.2180
  36   0.0000       0.125416         3.4127

MULLIKEN ATOMIC CHARGES
-----------------------
   0 C :   -0.529536
   1 C :   -0.225668
   2 C :   -0.317519
   3 C :    0.390627
   4 O :   -0.512310
   5 O :   -0.195810
   6 C :   -0.145826
   7 C :   -0.492152
   8 H :    0.161350
   9 H :    0.162379
  10 H :    0.162415
  11 H :    0.155065
  12 H :    0.163525
  13 H :    0.194239
  14 H :    0.180169
  15 H :    0.172633
  16 H :    0.173440
  17 H :    0.170159
  18 H :    0.165401
  19 H :    0.167419
Sum of atomic charges:   -0.0000000

LOEWDIN ATOMIC CHARGES
----------------------
   0 C :   -0.423820
   1 C :   -0.292813
   2 C :   -0.228953
   3 C :    0.364930
   4 O :   -0.497515
   5 O :   -0.599236
   6 C :    0.031096
   7 C :   -0.392648
   8 H :    0.156158
   9 H :    0.155802
  10 H :    0.156132
  11 H :    0.163417
  12 H :    0.160377
  13 H :    0.191823
  14 H :    0.184609
  15 H :    0.189933
  16 H :    0.188941
  17 H :    0.167711
  18 H :    0.161936
  19 H :    0.162121

  Mayer bond orders larger than 0.100000
B(  0-C ,  1-C ) :   0.8979 B(  0-C ,  8-H ) :   0.9658 B(  0-C ,  9-H ) :   0.9781
B(  0-C , 10-H ) :   0.9707 B(  1-C ,  2-C ) :   0.8744 B(  1-C , 11-H ) :   0.9719
B(  1-C , 12-H ) :   0.9616 B(  2-C ,  3-C ) :   0.9439 B(  2-C , 13-H ) :   0.9275
B(  2-C , 14-H ) :   0.9951 B(  3-C ,  4-O ) :   1.7628 B(  3-C ,  5-O ) :   1.0714
B(  5-O ,  6-C ) :   0.8004 B(  6-C ,  7-C ) :   0.9387 B(  6-C , 15-H ) :   0.9627
B(  6-C , 16-H ) :   0.9513 B(  7-C , 17-H ) :   0.9605 B(  7-C , 18-H ) :   0.9698
B(  7-C , 19-H ) :   0.9689

Dispersion correction           -0.005131532
FINAL SINGLE POINT ENERGY      -386.241500764031

DIPOLE MOMENT
-------------

Method             : SCF
Type of density    : Electron Density
Multiplicity       :   1
Irrep              :   0
Energy             :  -386.2481066738310460 Eh
Relativity type    :
Basis              : AO
                                X                 Y                 Z
Electronic contribution:      1.846443334       1.074682301      -1.451415715
Nuclear contribution   :     -1.636817676      -2.122861705       1.594995534
                        -----------------------------------------
Total Dipole Moment    :      0.209625658      -1.048179404       0.143579819
                        -----------------------------------------
Magnitude (a.u.)       :      1.078535184
Magnitude (Debye)      :      2.741418574

Rotational constants in cm-1:             0.155005             0.034058             0.032799
Rotational constants in MHz :          4646.930162          1021.040485           983.281542

                             ****ORCA TERMINATED NORMALLY****
TOTAL RUN TIME: 0 days 0 hours 0 minutes 39 seconds 77 msec
