                         Program Version 6.0.0  -   RELEASE  -
|  1> ! r2scan-3c def2/J RI DEFGRID2 scfconv6 printgap
|  2> %output
|  3>     printlevel normal
|  4> end
|  5> * xyz 0 1
|  6> C 1.9237544752 -0.7278447577 -0.1629099029
|  7> C 1.1272887924 0.3432959213 0.5739711482
|  8> C 0.0246794509 0.9709272735 -0.2818342748
|  9> C -1.1134370688 0.0068819826 -0.6564803776
| 10> N -1.8892419105 -0.5173010359 0.4567561182
| 11> H 2.7403155361 -1.0840724535 0.460739337
| 12> H 1.2963473162 -1.5781864076 -0.4175144713
| 13> H 2.3431275405 -0.3229555402 -1.0812136832
| 14> H 0.6927189761 -0.0857511374 1.4804977831
| 15> H 1.8090479628 1.1369779563 0.8888091373
| 16> H -0.4040196352 1.8178878268 0.2619498787
| 17> H 0.4639204446 1.3569762062 -1.2037160859
| 18> H -0.7136036365 -0.8455716867 -1.2096575062
| 19> H -1.8103174378 0.5326656237 -1.3160800056
| 20> H -1.2887145574 -1.0616725654 1.0667865154
| 21> H -2.2584665916 0.2527908962 1.0051018026
| 22> *
| 23>
| 24>                          ****END OF INPUT****

CARTESIAN COORDINATES (ANGSTROEM)
---------------------------------
  C      1.923754   -0.727845   -0.162910
  C      1.127289    0.343296    0.573971
  C      0.024679    0.970927   -0.281834
  C     -1.113437    0.006882   -0.656480
  N     -1.889242   -0.517301    0.456756
  H      2.740316   -1.084072    0.460739
  H      1.296347   -1.578186   -0.417514
  H      2.343128   -0.322956   -1.081214
  H      0.692719   -0.085751    1.480498
  H      1.809048    1.136978    0.888809
  H     -0.404020    1.817888    0.261950
  H      0.463920    1.356976   -1.203716
  H     -0.713604   -0.845572   -1.209658
  H     -1.810317    0.532666   -1.316080
  H     -1.288715   -1.061673    1.066787
  H     -2.258467    0.252791    1.005102

 Total Charge           Charge          ....    0
 Multiplicity           Mult            ....    1
 Number of Electrons    NEL             ....   42
 Basis Dimension        Dim             ....  155

ORBITAL ENERGIES
----------------

  NO   OCC          E(Eh)            E(eV)
   0   2.0000     -14.134141      -384.6095
   1   2.0000     -10.046707      -273.3848
   2   2.0000     -10.026768      -272.8422
   3   2.0000     -10.021966      -272.7115
   4   2.0000     -10.018027      -272.6044
   5   2.0000      -0.846791       -23.0423
   6   2.0000      -0.751424       -20.4473
   7   2.0000      -0.670862       -18.2551
   8   2.0000      -0.600870       -16.3505
   9   2.0000      -0.532914       -14.5013
  10   2.0000      -0.466244       -12.6871
  11   2.0000      -0.429423       -11.6852
  12   2.0000      -0.410391       -11.1673
  13   2.0000      -0.397314       -10.8115
  14   2.0000      -0.362286        -9.8583
  15   2.0000      -0.351569        -9.5667
  16   2.0000      -0.338240        -9.2040
  17   2.0000      -0.304186        -8.2773
  18   2.0000      -0.298722        -8.1286
  19   2.0000      -0.290620        -7.9082
  20   2.0000      -0.203845        -5.5469
  21   0.0000       0.066375         1.8062
  22   0.0000       0.109966         2.9923
  23   0.0000       0.117069         3.1856
  24   0.0000       0.120324         3.2742
  25   0.0000       0.134718         3.6659

MULLIKEN ATOMIC CHARGES
-----------------------
   0 C :   -0.488950
   1 C :   -0.239838
   2 C :   -0.208122
   3 C :   -0.296120
   4 N :   -0.543912
   5 H :    0.146590
   6 H :    0.148334
   7 H :    0.146339
   8 H :    0.126769
   9 H :    0.144339
  10 H :    0.137263
  11 H :    0.134436
  12 H :    0.156258
  13 H :    0.150168
  14 H :    0.245422
  15 H :    0.241025
Sum of atomic charges:   -0.0000000

LOEWDIN ATOMIC CHARGES
----------------------
   0 C :   -0.425834
   1 C :   -0.322294
   2 C :   -0.307964
   3 C :   -0.085566
   4 N :   -0.731934
   5 H :    0.151378
   6 H :    0.147868
   7 H :    0.151088
   8 H :    0.147329
   9 H :    0.153118
  10 H :    0.153969
  11 H :    0.155884
  12 H :    0.171677
  13 H :    0.173134
  14 H :    0.233852
  15 H :    0.234293

  Mayer bond orders larger than 0.100000
B(  0-C ,  1-C ) :   0.9033 B(  0-C ,  5-H ) :   0.9695 B(  0-C ,  6-H ) :   0.9790
B(  0-C ,  7-H ) :   0.9821 B(  1-C ,  2-C ) :   0.8929 B(  1-C ,  8-H ) :   0.9781
B(  1-C ,  9-H ) :   0.9666 B(  2-C ,  3-C ) :   0.8757 B(  2-C , 10-H ) :   0.9698
B(  2-C , 11-H ) :   0.9726 B(  3-C ,  4-N ) :   0.9553 B(  3-C , 12-H ) :   1.0065
B(  3-C , 13-H ) :   0.9835 B(  4-N , 14-H ) :   0.9214 B(  4-N , 15-H ) :   0.9173

Dispersion correction           -0.003585047
FINAL SINGLE POINT ENERGY      -213.722868757649

DIPOLE MOMENT
-------------

Method             : SCF
Type of density    : Electron Density
Multiplicity       :   1
Irrep              :   0
Energy             :  -213.7299563582971018 Eh
Relativity type    :
Basis              : AO
                                X                 Y                 Z
Electronic contribution:     -2.282652568       0.208108069       0.259325795
Nuclear contribution   :      2.682536320       0.108897857      -0.057825448
                        -----------------------------------------
Total Dipole Moment    :      0.399883753       0.317005926       0.201500347
                        -----------------------------------------
Magnitude (a.u.)       :      0.548636640
Magnitude (Debye)      :      1.394523514

Rotational constants in cm-1:             0.280278             0.094622             0.088518
Rotational constants in MHz :          8402.509777          2836.691877          2653.706170

                             ****ORCA TERMINATED NORMALLY****
TOTAL RUN TIME: 0 days 0 hours 0 minutes 17 seconds 873 msec
