                         Program Version 6.0.0  -   RELEASE  -
|  1> ! r2scan-3c def2/J RI DEFGRID2 scfconv6 printgap
|  2> %output
|  3>     printlevel normal
|  4> end
|  5> %cpcm
|  6>     smd true
|  7>     smdsolvent "water"
|  8> end
|  9> * xyz 0 1
| 10> C 1.9237544752 -0.7278447577 -0.1629099029
| 11> C 1.1272887924 0.3432959213 0.5739711482
| 12> C 0.0246794509 0.9709272735 -0.2818342748
| 13> C -1.1134370688 0.0068819826 -0.6564803776
| 14> N -1.8892419105 -0.5173010359 0.4567561182
| 15> H 2.7403155361 -1.0840724535 0.460739337
| 16> H 1.2963473162 -1.5781864076 -0.4175144713
| 17> H 2.3431275405 -0.3229555402 -1.0812136832
| 18> H 0.6927189761 -0.0857511374 1.4804977831
| 19> H 1.8090479628 1.1369779563 0.8888091373
| 20> H -0.4040196352 1.8178878268 0.2619498787
| 21> H 0.4639204446 1.3569762062 -1.2037160859
| 22> H -0.7136036365 -0.8455716867 -1.2096575062
| 23> H -1.8103174378 0.5326656237 -1.3160800056
| 24> H -1.2887145574 -1.0616725654 1.0667865154
| 25> H -2.2584665916 0.2527908962 1.0051018026
| 26> *
| 27>
| 28>                          ****END OF INPUT****

CARTESIAN COORDINATES (ANGSTROEM)
---------------------------------
  C      1.923754   -0.727845   -0.162910
  C      1.127289    0.343296    0.573971
  C      0.024679    0.970927   -0.281834
  C     -1.113437    0.006882   -0.656480
  N     -1.889242   -0.517301    0.456756
  H      2.740316   -1.084072    0.460739
  H      1.296347   -1.578186   -0.417514
  H      2.343128   -0.322956   -1.081214
  H      0.692719   -0.085751    1.480498
  H      1.809048    1.136978    0.888809
  H     -0.404020    1.817888    0.261950
  H      0.463920    1.356976   -1.203716
  H     -0.713604   -0.845572   -1.209658
  H     -1.810317    0.532666   -1.316080
  H     -1.288715   -1.061673    1.066787
  H     -2.258467    0.252791    1.005102

 Total Charge           Charge          ....    0
 Multiplicity           Mult            ....    1
 Number of Electrons    NEL             ....   42
 Basis Dimension        Dim             ....  155

ORBITAL ENERGIES
----------------

  NO   OCC          E(Eh)            E(eV)
   0   2.0000     -14.127149      -384.4193
   1   2.0000     -10.039372      -273.1852
   2   2.0000     -10.015469      -272.5348
   3   2.0000     -10.012070      -272.4423
   4   2.0000     -10.006512      -272.2910
   5   2.0000      -0.839872       -22.8541
   6   2.0000      -0.741019       -20.1641
   7   2.0000      -0.661350       -17.9962
   8   2.0000      -0.591769       -16.1028
   9   2.0000      -0.523351       -14.2411
  10   2.0000      -0.457551       -12.4506
  11   2.0000      -0.418868       -11.3980
  12   2.0000      -0.400783       -10.9059
  13   2.0000      -0.388415       -10.5693
  14   2.0000      -0.353429        -9.6173
  15   2.0000      -0.341832        -9.3017
  16   2.0000      -0.328789        -8.9468
  17   2.0000      -0.293076        -7.9750
  18   2.0000      -0.289001        -7.8641
  19   2.0000      -0.280488        -7.6325
  20   2.0000      -0.203615        -5.5406
  21   0.0000       0.079035         2.1507
  22   0.0000       0.121033         3.2935
  23   0.0000       0.128550         3.4980
  24   0.0000       0.130142         3.5413
  25   0.0000       0.142367         3.8740

MULLIKEN ATOMIC CHARGES
-----------------------
   0 C :   -0.528641
   1 C :   -0.245489
   2 C :   -0.240876
   3 C :   -0.284854
   4 N :   -0.643170
   5 H :    0.154693
   6 H :    0.160805
   7 H :    0.155355
   8 H :    0.140672
   9 H :    0.150633
  10 H :    0.149122
  11 H :    0.143466
  12 H :    0.162123
  13 H :    0.153432
  14 H :    0.289424
  15 H :    0.283306
Sum of atomic charges:   -0.0000000

LOEWDIN ATOMIC CHARGES
----------------------
   0 C :   -0.434075
   1 C :   -0.323530
   2 C :   -0.308358
   3 C :   -0.091024
   4 N :   -0.757187
   5 H :    0.152822
   6 H :    0.151465
   7 H :    0.152651
   8 H :    0.152261
   9 H :    0.154095
  10 H :    0.157669
  11 H :    0.158460
  12 H :    0.173705
  13 H :    0.173799
  14 H :    0.243547
  15 H :    0.243701

  Mayer bond orders larger than 0.100000
B(  0-C ,  1-C ) :   0.8939 B(  0-C ,  5-H ) :   0.9675 B(  0-C ,  6-H ) :   0.9773
B(  0-C ,  7-H ) :   0.9800 B(  1-C ,  2-C ) :   0.8936 B(  1-C ,  8-H ) :   0.9757
B(  1-C ,  9-H ) :   0.9678 B(  2-C ,  3-C ) :   0.8943 B(  2-C , 10-H ) :   0.9701
B(  2-C , 11-H ) :   0.9728 B(  3-C ,  4-N ) :   0.9628 B(  3-C , 12-H ) :   0.9967
B(  3-C , 13-H ) :   0.9756 B(  4-N , 14-H ) :   0.9047 B(  4-N , 15-H ) :   0.9012

Dispersion correction           -0.003585047
FINAL SINGLE POINT ENERGY      -213.728848073350

DIPOLE MOMENT
-------------

Method             : SCF
Type of density    : Electron Density
Multiplicity       :   1
Irrep              :   0
Energy             :  -213.7359356739976306 Eh
Relativity type    :
Basis              : AO
                                X                 Y                 Z
Electronic contribution:     -2.164350607       0.306118768       0.354839857
Nuclear contribution   :      2.682536320       0.108897857      -0.057825448
                        -----------------------------------------
Total Dipole Moment    :      0.518185713       0.415016625       0.297014409
                        -----------------------------------------
Magnitude (a.u.)       :      0.727305157
Magnitude (Debye)      :      1.848662794

Rotational constants in cm-1:             0.280278             0.094622             0.088518
Rotational constants in MHz :          8402.509777          2836.691877          2653.706170

                             ****ORCA TERMINATED NORMALLY****
TOTAL RUN TIME: 0 days 0 hours 0 minutes 21 seconds 625 msec
