                         Program Version 6.0.0  -   RELEASE  -
|  1> ! pbe def2-sv(p) def2/J RI DEFGRID1 loosescf d4 GCP(DFT/SV(P)) printgap
|  2> %output
|  3>     printlevel normal
|  4> end
|  5> * xyz 0 1
|  6> C -3.6331550411 0.007368956 1.8543215594
|  7> C -3.051863261 0.540778041 0.5444341348
|  8> H -3.1565004987 1.6288111254 0.5024536659
|  9> C -1.5839581782 0.193773808 0.3935537109
| 10> C -1.1721847788 -1.1525866538 0.3822180456
| 11> C 0.1481941308 -1.4802213167 0.2571122202
| 12> C 1.1357416528 -0.480961584 0.1349082966
| 13> C 2.5038594213 -0.7990049979 0.0062779856
| 14> C 3.4391123334 0.1981619488 -0.1138083675
| 15> C 3.0291966228 1.5525000865 -0.1087761134
| 16> C 1.7131297558 1.8792128067 0.0145797678
| 17> C 0.7261845295 0.8762261578 0.1397782894
| 18> C -0.6422325013 1.182309355 0.2670037517
| 19> O 4.7835422035 0.0103695789 -0.2432140267
| 20> C 5.2816595033 -1.313478346 -0.2563426675
| 21> C -3.7578756874 -0.0125329085 -0.6743249883
| 22> O -3.9510859258 0.6318095942 -1.6856830282
| 23> O -4.1167373845 -1.2775481189 -0.5612162454
| 24> H -3.0701729427 0.4154555375 2.6891688887
| 25> H -4.6736656174 0.3067724996 1.9508615008
| 26> H -3.5782472667 -1.0760188646 1.8892725246
| 27> H -1.9144893288 -1.9313464636 0.4666537131
| 28> H 0.452522139 -2.5164656596 0.2484168825
| 29> H 2.7838481747 -1.8405304732 0.005626457
| 30> H 3.7948695724 2.3059005083 -0.205782721
| 31> H 1.4068733176 2.9144679976 0.0172668849
| 32> H -0.939290396 2.2212893188 0.2651908252
| 33> H 5.0525425025 -1.8291475031 0.6798289171
| 34> H 6.3590233335 -1.2140311182 -0.3663997694
| 35> H 4.8754896552 -1.8783127053 -1.0994817685
| 36> H -4.5439771434 -1.6204758324 -1.3700519498
| 37> *
| 38>
| 39>                          ****END OF INPUT****

CARTESIAN COORDINATES (ANGSTROEM)
---------------------------------
  C     -3.633155    0.007369    1.854322
  C     -3.051863    0.540778    0.544434
  H     -3.156500    1.628811    0.502454
  C     -1.583958    0.193774    0.393554
  C     -1.172185   -1.152587    0.382218
  C      0.148194   -1.480221    0.257112
  C      1.135742   -0.480962    0.134908
  C      2.503859   -0.799005    0.006278
  C      3.439112    0.198162   -0.113808
  C      3.029197    1.552500   -0.108776
  C      1.713130    1.879213    0.014580
  C      0.726185    0.876226    0.139778
  C     -0.642233    1.182309    0.267004
  O      4.783542    0.010370   -0.243214
  C      5.281660   -1.313478   -0.256343
  C     -3.757876   -0.012533   -0.674325
  O     -3.951086    0.631810   -1.685683
  O     -4.116737   -1.277548   -0.561216
  H     -3.070173    0.415456    2.689169
  H     -4.673666    0.306772    1.950862
  H     -3.578247   -1.076019    1.889273
  H     -1.914489   -1.931346    0.466654
  H      0.452522   -2.516466    0.248417
  H      2.783848   -1.840530    0.005626
  H      3.794870    2.305901   -0.205783
  H      1.406873    2.914468    0.017267
  H     -0.939290    2.221289    0.265191
  H      5.052543   -1.829148    0.679829
  H      6.359023   -1.214031   -0.366400
  H      4.875490   -1.878313   -1.099482
  H     -4.543977   -1.620476   -1.370052

 Total Charge           Charge          ....    0
 Multiplicity           Mult            ....    1
 Number of Electrons    NEL             ....  122
 Basis Dimension        Dim             ....  266

ORBITAL ENERGIES
----------------

  NO   OCC          E(Eh)            E(eV)
   0   2.0000     -18.804047      -511.6841
   1   2.0000     -18.792177      -511.3611
   2   2.0000     -18.734418      -509.7894
   3   2.0000     -10.009914      -272.3836
   4   2.0000      -9.952235      -270.8141
   5   2.0000      -9.943013      -270.5631
   6   2.0000      -9.912020      -269.7198
   7   2.0000      -9.904046      -269.5028
   8   2.0000      -9.903009      -269.4746
   9   2.0000      -9.898589      -269.3543
  10   2.0000      -9.895275      -269.2641
  11   2.0000      -9.891434      -269.1596
  12   2.0000      -9.891325      -269.1566
  13   2.0000      -9.891111      -269.1508
  14   2.0000      -9.890679      -269.1391
  15   2.0000      -9.889304      -269.1016
  16   2.0000      -9.884083      -268.9596
  17   2.0000      -1.011739       -27.5308
  18   2.0000      -0.971675       -26.4406
  19   2.0000      -0.908188       -24.7131
  20   2.0000      -0.795959       -21.6592
  21   2.0000      -0.757542       -20.6138
  22   2.0000      -0.719595       -19.5812
  23   2.0000      -0.695233       -18.9182
  24   2.0000      -0.672641       -18.3035
  25   2.0000      -0.648344       -17.6423
  26   2.0000      -0.627547       -17.0764
  27   2.0000      -0.603759       -16.4291
  28   2.0000      -0.566072       -15.4036
  29   2.0000      -0.558916       -15.2089
  30   2.0000      -0.541061       -14.7230
  31   2.0000      -0.524768       -14.2797
  32   2.0000      -0.483525       -13.1574
  33   2.0000      -0.466912       -12.7053
  34   2.0000      -0.458554       -12.4779
  35   2.0000      -0.427251       -11.6261
  36   2.0000      -0.423836       -11.5332
  37   2.0000      -0.420653       -11.4466
  38   2.0000      -0.416673       -11.3383
  39   2.0000      -0.410571       -11.1722
  40   2.0000      -0.399945       -10.8831
  41   2.0000      -0.392224       -10.6730
  42   2.0000      -0.380170       -10.3449
  43   2.0000      -0.370521       -10.0824
  44   2.0000      -0.362925        -9.8757
  45   2.0000      -0.358316        -9.7503
  46   2.0000      -0.355774        -9.6811
  47   2.0000      -0.346630        -9.4323
  48   2.0000      -0.336555        -9.1581
  49   2.0000      -0.329564        -8.9679
  50   2.0000      -0.314315        -8.5530
  51   2.0000      -0.313520        -8.5313
  52   2.0000      -0.302336        -8.2270
  53   2.0000      -0.294310        -8.0086
  54   2.0000      -0.281856        -7.6697
  55   2.0000      -0.270278        -7.3546
  56   2.0000      -0.268748        -7.3130
  57   2.0000      -0.252422        -6.8688
  58   2.0000      -0.217624        -5.9219
  59   2.0000      -0.208395        -5.6707
  60   2.0000      -0.185584        -5.0500
  61   0.0000      -0.064739        -1.7616
  62   0.0000      -0.039386        -1.0717
  63   0.0000      -0.013354        -0.3634
  64   0.0000      -0.001273        -0.0346
  65   0.0000       0.020877         0.5681

MULLIKEN ATOMIC CHARGES
-----------------------
   0 C :   -0.223729
   1 C :   -0.129927
   2 H :    0.081387
   3 C :    0.119431
   4 C :   -0.107127
   5 C :   -0.126616
   6 C :    0.171777
   7 C :   -0.300460
   8 C :    0.294266
   9 C :   -0.092890
  10 C :   -0.128013
  11 C :    0.176172
  12 C :   -0.214506
  13 O :   -0.267746
  14 C :   -0.114076
  15 C :    0.111610
  16 O :   -0.186969
  17 O :   -0.287728
  18 H :    0.108142
  19 H :    0.106312
  20 H :    0.119402
  21 H :    0.051139
  22 H :    0.031314
  23 H :    0.023735
  24 H :    0.046856
  25 H :    0.042032
  26 H :    0.027884
  27 H :    0.111809
  28 H :    0.126914
  29 H :    0.112319
  30 H :    0.317288
Sum of atomic charges:   -0.0000000

LOEWDIN ATOMIC CHARGES
----------------------
   0 C :   -0.322111
   1 C :   -0.149281
   2 H :    0.137026
   3 C :   -0.035505
   4 C :   -0.121749
   5 C :   -0.114805
   6 C :   -0.017445
   7 C :   -0.174104
   8 C :    0.029614
   9 C :   -0.132550
  10 C :   -0.104268
  11 C :   -0.034236
  12 C :   -0.107249
  13 O :   -0.088801
  14 C :   -0.202006
  15 C :    0.033698
  16 O :   -0.170441
  17 O :   -0.195717
  18 H :    0.125483
  19 H :    0.122673
  20 H :    0.124104
  21 H :    0.124283
  22 H :    0.121693
  23 H :    0.125598
  24 H :    0.131599
  25 H :    0.126303
  26 H :    0.123507
  27 H :    0.110582
  28 H :    0.123177
  29 H :    0.110781
  30 H :    0.300148

  Mayer bond orders larger than 0.100000
B(  0-C ,  1-C ) :   1.0880 B(  0-C , 18-H ) :   0.9461 B(  0-C , 19-H ) :   0.9506
B(  0-C , 20-H ) :   0.9364 B(  1-C ,  2-H ) :   0.8760 B(  1-C ,  3-C ) :   0.9989
B(  1-C , 15-C ) :   0.9398 B(  3-C ,  4-C ) :   1.2574 B(  3-C , 12-C ) :   1.4513
B(  4-C ,  5-C ) :   1.4479 B(  4-C , 21-H ) :   0.9488 B(  5-C ,  6-C ) :   1.2303
B(  5-C , 22-H ) :   0.9654 B(  6-C ,  7-C ) :   1.2018 B(  6-C , 11-C ) :   1.2573
B(  7-C ,  8-C ) :   1.3348 B(  7-C , 23-H ) :   0.9642 B(  8-C ,  9-C ) :   1.2453
B(  8-C , 13-O ) :   1.1404 B(  9-C , 10-C ) :   1.4585 B(  9-C , 24-H ) :   0.9616
B( 10-C , 11-C ) :   1.2047 B( 10-C , 25-H ) :   0.9676 B( 11-C , 12-C ) :   1.2263
B( 12-C , 26-H ) :   0.9630 B( 13-O , 14-C ) :   0.9881 B( 14-C , 27-H ) :   0.9415
B( 14-C , 28-H ) :   0.9585 B( 14-C , 29-H ) :   0.9415 B( 15-C , 16-O ) :   2.1329
B( 15-C , 17-O ) :   1.2489 B( 17-O , 30-H ) :   0.8172

Dispersion correction           -0.038976532
FINAL SINGLE POINT ENERGY      -765.992945894261

DIPOLE MOMENT
-------------

Method             : SCF
Type of density    : Electron Density
Multiplicity       :   1
Irrep              :   0
Energy             :  -766.0874495700027182 Eh
Relativity type    :
Basis              : AO
                                X                 Y                 Z
Electronic contribution:     -2.261455366       2.904027948      -4.884470514
Nuclear contribution   :      2.624037194      -3.868699846       5.285380870
                        -----------------------------------------
Total Dipole Moment    :      0.362581828      -0.964671898       0.400910356
                        -----------------------------------------
Magnitude (a.u.)       :      1.105796801
Magnitude (Debye)      :      2.810712098

Rotational constants in cm-1:             0.044017             0.006963             0.006614
Rotational constants in MHz :          1319.582141           208.738010           198.276396

                             ****ORCA TERMINATED NORMALLY****
TOTAL RUN TIME: 0 days 0 hours 0 minutes 25 seconds 976 msec
