                         Program Version 6.0.0  -   RELEASE  -
|  1> ! pbe def2-sv(p) def2/J RI DEFGRID1 loosescf d4 GCP(DFT/SV(P)) printgap
|  2> %output
|  3>     printlevel normal
|  4> end
|  5> * xyz 0 1
|  6> C -3.4134568335 -1.0032886585 0.2838251497
|  7> C -2.0611676683 -0.6435819138 -0.3180550988
|  8> C -1.3108286916 0.3631973839 0.5671739429
|  9> C 0.0055580057 0.7027607122 -0.0767780111
| 10> O 0.1884854158 1.6287413387 -0.8416325733
| 11> O 0.9527413879 -0.1592630536 0.2609406406
| 12> C 2.2595987746 0.0085028901 -0.3147877401
| 13> C 3.2335133739 -0.8598960633 0.4580722841
| 14> H -3.9294008015 -1.7150190171 -0.3547131504
| 15> H -3.2856599958 -1.4489738843 1.2667542832
| 16> H -4.0338807545 -0.1165040924 0.3841047977
| 17> H -2.2003899732 -0.2086137112 -1.3100618872
| 18> H -1.4531654011 -1.5437999057 -0.4251215348
| 19> H -1.1261068656 -0.0764871218 1.5463301308
| 20> H -1.8978599107 1.2757623263 0.6661715335
| 21> H 2.2086235548 -0.2822538445 -1.3690571405
| 22> H 2.5263742108 1.0692980172 -0.264780762
| 23> H 4.2247624371 -0.7568884242 0.0292761738
| 24> H 3.2600908575 -0.5547105658 1.5000073952
| 25> H 2.9251928176 -1.899720004 0.4054251456
| 26> *
| 27>
| 28>                          ****END OF INPUT****

CARTESIAN COORDINATES (ANGSTROEM)
---------------------------------
  C     -3.413457   -1.003289    0.283825
  C     -2.061168   -0.643582   -0.318055
  C     -1.310829    0.363197    0.567174
  C      0.005558    0.702761   -0.076778
  O      0.188485    1.628741   -0.841633
  O      0.952741   -0.159263    0.260941
  C      2.259599    0.008503   -0.314788
  C      3.233513   -0.859896    0.458072
  H     -3.929401   -1.715019   -0.354713
  H     -3.285660   -1.448974    1.266754
  H     -4.033881   -0.116504    0.384105
  H     -2.200390   -0.208614   -1.310062
  H     -1.453165   -1.543800   -0.425122
  H     -1.126107   -0.076487    1.546330
  H     -1.897860    1.275762    0.666172
  H      2.208624   -0.282254   -1.369057
  H      2.526374    1.069298   -0.264781
  H      4.224762   -0.756888    0.029276
  H      3.260091   -0.554711    1.500007
  H      2.925193   -1.899720    0.405425

 Total Charge           Charge          ....    0
 Multiplicity           Mult            ....    1
 Number of Electrons    NEL             ....   64
 Basis Dimension        Dim             ....  136

ORBITAL ENERGIES
----------------

  NO   OCC          E(Eh)            E(eV)
   0   2.0000     -18.796215      -511.4710
   1   2.0000     -18.727554      -509.6027
   2   2.0000     -10.001606      -272.1575
   3   2.0000      -9.946011      -270.6447
   4   2.0000      -9.895887      -269.2808
   5   2.0000      -9.895410      -269.2678
   6   2.0000      -9.889173      -269.0981
   7   2.0000      -9.880590      -268.8645
   8   2.0000      -1.002909       -27.2905
   9   2.0000      -0.904434       -24.6109
  10   2.0000      -0.729924       -19.8622
  11   2.0000      -0.699874       -19.0445
  12   2.0000      -0.639622       -17.4050
  13   2.0000      -0.579792       -15.7770
  14   2.0000      -0.534133       -14.5345
  15   2.0000      -0.506770       -13.7899
  16   2.0000      -0.448433       -12.2025
  17   2.0000      -0.436708       -11.8834
  18   2.0000      -0.425804       -11.5867
  19   2.0000      -0.396807       -10.7977
  20   2.0000      -0.389407       -10.5963
  21   2.0000      -0.368497       -10.0273
  22   2.0000      -0.360988        -9.8230
  23   2.0000      -0.347186        -9.4474
  24   2.0000      -0.343411        -9.3447
  25   2.0000      -0.329139        -8.9563
  26   2.0000      -0.314630        -8.5615
  27   2.0000      -0.298726        -8.1287
  28   2.0000      -0.298196        -8.1143
  29   2.0000      -0.292403        -7.9567
  30   2.0000      -0.253851        -6.9077
  31   2.0000      -0.211674        -5.7599
  32   0.0000      -0.016498        -0.4489
  33   0.0000       0.038493         1.0474
  34   0.0000       0.047775         1.3000
  35   0.0000       0.076758         2.0887
  36   0.0000       0.078789         2.1440

MULLIKEN ATOMIC CHARGES
-----------------------
   0 C :   -0.241960
   1 C :   -0.241245
   2 C :   -0.112686
   3 C :    0.109925
   4 O :   -0.216115
   5 O :   -0.245000
   6 C :   -0.027087
   7 C :   -0.273436
   8 H :    0.107103
   9 H :    0.098733
  10 H :    0.101246
  11 H :    0.103900
  12 H :    0.097114
  13 H :    0.092657
  14 H :    0.097914
  15 H :    0.102095
  16 H :    0.108736
  17 H :    0.110729
  18 H :    0.114322
  19 H :    0.113055
Sum of atomic charges:    0.0000000

LOEWDIN ATOMIC CHARGES
----------------------
   0 C :   -0.338897
   1 C :   -0.225235
   2 C :   -0.241909
   3 C :    0.034416
   4 O :   -0.173604
   5 O :   -0.071955
   6 C :   -0.108739
   7 C :   -0.350816
   8 H :    0.121828
   9 H :    0.118181
  10 H :    0.119349
  11 H :    0.122250
  12 H :    0.118317
  13 H :    0.129053
  14 H :    0.133561
  15 H :    0.114909
  16 H :    0.117387
  17 H :    0.129941
  18 H :    0.126269
  19 H :    0.125693

  Mayer bond orders larger than 0.100000
B(  0-C ,  1-C ) :   1.1580 B(  0-C ,  8-H ) :   0.9517 B(  0-C ,  9-H ) :   0.9533
B(  0-C , 10-H ) :   0.9532 B(  1-C ,  2-C ) :   1.1303 B(  1-C , 11-H ) :   0.9266
B(  1-C , 12-H ) :   0.9267 B(  2-C ,  3-C ) :   1.0312 B(  2-C , 13-H ) :   0.8997
B(  2-C , 14-H ) :   0.9023 B(  3-C ,  4-O ) :   2.0523 B(  3-C ,  5-O ) :   1.2030
B(  5-O ,  6-C ) :   0.9119 B(  6-C ,  7-C ) :   1.1510 B(  6-C , 15-H ) :   0.9351
B(  6-C , 16-H ) :   0.9254 B(  7-C , 17-H ) :   0.9447 B(  7-C , 18-H ) :   0.9515
B(  7-C , 19-H ) :   0.9487

Dispersion correction           -0.014351320
FINAL SINGLE POINT ENERGY      -385.457239833178

DIPOLE MOMENT
-------------

Method             : SCF
Type of density    : Electron Density
Multiplicity       :   1
Irrep              :   0
Energy             :  -385.5321743995111774 Eh
Relativity type    :
Basis              : AO
                                X                 Y                 Z
Electronic contribution:      2.775320183       5.152453703      -1.592807796
Nuclear contribution   :     -2.592513153      -5.849173311       1.937461408
                        -----------------------------------------
Total Dipole Moment    :      0.182807029      -0.696719608       0.344653612
                        -----------------------------------------
Magnitude (a.u.)       :      0.798512826
Magnitude (Debye)      :      2.029658305

Rotational constants in cm-1:             0.136945             0.031178             0.027214
Rotational constants in MHz :          4105.499020           934.689726           815.840989

                             ****ORCA TERMINATED NORMALLY****
TOTAL RUN TIME: 0 days 0 hours 0 minutes 11 seconds 408 msec
