                         Program Version 6.0.1  -  RELEASE   -
|  1> ! r2scan-3c def2/J RI DEFGRID2 scfconv6 printgap
|  2> %output
|  3>     printlevel normal
|  4> end
|  5> * xyz 0 1
|  6> C -3.8870946745 0.1987882588 -1.9575626881
|  7> C -3.3122404992 -0.3504719885 -0.6553706625
|  8> H -3.5750175168 -1.4033641167 -0.5300466003
|  9> C -1.8088346355 -0.2138979604 -0.5348301983
| 10> C -1.1111730557 0.8368586623 -1.1172135859
| 11> C 0.2587050552 0.9410299337 -0.9695629038
| 12> C 0.9875956616 0.0172561622 -0.2224353881
| 13> C 0.2609583212 -1.0147241119 0.3623438377
| 14> C -1.1044407756 -1.1448148432 0.2191533109
| 15> F 0.9095815403 -1.9703703853 1.0921897879
| 16> C 2.4464994527 0.1409815549 -0.0760182356
| 17> C 3.0601549961 -0.0106922961 1.1643677652
| 18> C 4.4318299263 0.1180637363 1.2858208128
| 19> C 5.2078081096 0.3946203044 0.1727020806
| 20> C 4.6050601799 0.5461817021 -1.0654210894
| 21> C 3.2337892055 0.424280814 -1.1899594303
| 22> C -3.857672008 0.4030378817 0.5460995802
| 23> O -4.1197403459 1.5842580977 0.5613535292
| 24> O -3.9740729325 -0.3763578944 1.6073554669
| 25> H -4.9131504894 -0.1382695059 -2.0780653831
| 26> H -3.8900920739 1.2855501958 -1.9388334401
| 27> H -3.2999117324 -0.1485209662 -2.8021686803
| 28> H -1.6377886756 1.582889863 -1.6883401056
| 29> H 0.7839175101 1.7664388942 -1.4239351027
| 30> H -1.606250609 -1.9714625579 0.6973350971
| 31> H 2.4605025953 -0.2183204624 2.038202471
| 32> H 4.8953552057 0.0020521264 2.2539168311
| 33> H 6.2784631495 0.4906332423 0.2698073496
| 34> H 5.2059452969 0.7581429434 -1.9368460279
| 35> H 2.7665992971 0.5277093532 -2.1577684875
| 36> H -4.2814514909 0.1017834321 2.4023647718
| 37> *
| 38>
| 39>                          ****END OF INPUT****

CARTESIAN COORDINATES (ANGSTROEM)
---------------------------------
  C     -3.887095    0.198788   -1.957563
  C     -3.312240   -0.350472   -0.655371
  H     -3.575018   -1.403364   -0.530047
  C     -1.808835   -0.213898   -0.534830
  C     -1.111173    0.836859   -1.117214
  C      0.258705    0.941030   -0.969563
  C      0.987596    0.017256   -0.222435
  C      0.260958   -1.014724    0.362344
  C     -1.104441   -1.144815    0.219153
  F      0.909582   -1.970370    1.092190
  C      2.446499    0.140982   -0.076018
  C      3.060155   -0.010692    1.164368
  C      4.431830    0.118064    1.285821
  C      5.207808    0.394620    0.172702
  C      4.605060    0.546182   -1.065421
  C      3.233789    0.424281   -1.189959
  C     -3.857672    0.403038    0.546100
  O     -4.119740    1.584258    0.561354
  O     -3.974073   -0.376358    1.607355
  H     -4.913150   -0.138270   -2.078065
  H     -3.890092    1.285550   -1.938833
  H     -3.299912   -0.148521   -2.802169
  H     -1.637789    1.582890   -1.688340
  H      0.783918    1.766439   -1.423935
  H     -1.606251   -1.971463    0.697335
  H      2.460503   -0.218320    2.038202
  H      4.895355    0.002052    2.253917
  H      6.278463    0.490633    0.269807
  H      5.205945    0.758143   -1.936846
  H      2.766599    0.527709   -2.157768
  H     -4.281451    0.101783    2.402365

 Total Charge           Charge          ....    0
 Multiplicity           Mult            ....    1
 Number of Electrons    NEL             ....  128
 Basis Dimension        Dim             ....  422

ORBITAL ENERGIES
----------------

  NO   OCC          E(Eh)            E(eV)
   0   2.0000     -24.497267      -666.6045
   1   2.0000     -19.012264      -517.3500
   2   2.0000     -18.941101      -515.4136
   3   2.0000     -10.168380      -276.6957
   4   2.0000     -10.124754      -275.5086
   5   2.0000     -10.067732      -273.9569
   6   2.0000     -10.063016      -273.8286
   7   2.0000     -10.057342      -273.6742
   8   2.0000     -10.052470      -273.5416
   9   2.0000     -10.048204      -273.4255
  10   2.0000     -10.046668      -273.3837
  11   2.0000     -10.041747      -273.2498
  12   2.0000     -10.039429      -273.1867
  13   2.0000     -10.038533      -273.1624
  14   2.0000     -10.037994      -273.1477
  15   2.0000     -10.037655      -273.1385
  16   2.0000     -10.037316      -273.1293
  17   2.0000     -10.032919      -273.0096
  18   2.0000      -1.180619       -32.1263
  19   2.0000      -1.086187       -29.5567
  20   2.0000      -0.987562       -26.8729
  21   2.0000      -0.854145       -23.2425
  22   2.0000      -0.831595       -22.6289
  23   2.0000      -0.790222       -21.5030
  24   2.0000      -0.744811       -20.2673
  25   2.0000      -0.727378       -19.7930
  26   2.0000      -0.720218       -19.5981
  27   2.0000      -0.694378       -18.8950
  28   2.0000      -0.657854       -17.9011
  29   2.0000      -0.611866       -16.6497
  30   2.0000      -0.599602       -16.3160
  31   2.0000      -0.574195       -15.6247
  32   2.0000      -0.570517       -15.5246
  33   2.0000      -0.554458       -15.0876
  34   2.0000      -0.511675       -13.9234
  35   2.0000      -0.491266       -13.3680
  36   2.0000      -0.480884       -13.0855
  37   2.0000      -0.463755       -12.6194
  38   2.0000      -0.461741       -12.5646
  39   2.0000      -0.451216       -12.2782
  40   2.0000      -0.444247       -12.0886
  41   2.0000      -0.431979       -11.7547
  42   2.0000      -0.421566       -11.4714
  43   2.0000      -0.418269       -11.3817
  44   2.0000      -0.412323       -11.2199
  45   2.0000      -0.398393       -10.8408
  46   2.0000      -0.392800       -10.6886
  47   2.0000      -0.382670       -10.4130
  48   2.0000      -0.374898       -10.2015
  49   2.0000      -0.371526       -10.1097
  50   2.0000      -0.354752        -9.6533
  51   2.0000      -0.351864        -9.5747
  52   2.0000      -0.346785        -9.4365
  53   2.0000      -0.335216        -9.1217
  54   2.0000      -0.331594        -9.0231
  55   2.0000      -0.324517        -8.8305
  56   2.0000      -0.315475        -8.5845
  57   2.0000      -0.307490        -8.3672
  58   2.0000      -0.298984        -8.1358
  59   2.0000      -0.266572        -7.2538
  60   2.0000      -0.247923        -6.7463
  61   2.0000      -0.241115        -6.5611
  62   2.0000      -0.238897        -6.5007
  63   2.0000      -0.216346        -5.8871
  64   0.0000      -0.065317        -1.7774
  65   0.0000      -0.038504        -1.0478
  66   0.0000      -0.034839        -0.9480
  67   0.0000      -0.028083        -0.7642
  68   0.0000      -0.001317        -0.0358

MULLIKEN ATOMIC CHARGES
-----------------------
   0 C :   -0.528125
   1 C :   -0.065005
   2 H :    0.175739
   3 C :    0.167092
   4 C :   -0.219860
   5 C :   -0.198520
   6 C :    0.060941
   7 C :    0.311352
   8 C :   -0.360739
   9 F :   -0.240516
  10 C :    0.103317
  11 C :   -0.179581
  12 C :   -0.171768
  13 C :   -0.136119
  14 C :   -0.169103
  15 C :   -0.209146
  16 C :    0.328097
  17 O :   -0.395373
  18 O :   -0.332987
  19 H :    0.156916
  20 H :    0.180726
  21 H :    0.169648
  22 H :    0.151163
  23 H :    0.155866
  24 H :    0.168691
  25 H :    0.154842
  26 H :    0.145823
  27 H :    0.146882
  28 H :    0.145705
  29 H :    0.152684
  30 H :    0.331361
Sum of atomic charges:    0.0000000

LOEWDIN ATOMIC CHARGES
----------------------
   0 C :   -0.381313
   1 C :   -0.144782
   2 H :    0.188152
   3 C :   -0.060443
   4 C :   -0.148145
   5 C :   -0.126770
   6 C :   -0.062809
   7 C :    0.237189
   8 C :   -0.134401
   9 F :   -0.288538
  10 C :   -0.062824
  11 C :   -0.132460
  12 C :   -0.158829
  13 C :   -0.163297
  14 C :   -0.160318
  15 C :   -0.145937
  16 C :    0.356171
  17 O :   -0.415876
  18 O :   -0.394988
  19 H :    0.161425
  20 H :    0.174263
  21 H :    0.162515
  22 H :    0.178722
  23 H :    0.177867
  24 H :    0.188518
  25 H :    0.177598
  26 H :    0.168339
  27 H :    0.167289
  28 H :    0.167950
  29 H :    0.173969
  30 H :    0.301763

  Mayer bond orders larger than 0.100000
B(  0-C ,  1-C ) :   0.8576 B(  0-C , 19-H ) :   0.9676 B(  0-C , 20-H ) :   0.9619
B(  0-C , 21-H ) :   0.9883 B(  1-C ,  2-H ) :   0.9893 B(  1-C ,  3-C ) :   0.8239
B(  1-C , 16-C ) :   0.9517 B(  3-C ,  4-C ) :   1.3982 B(  3-C ,  6-C ) :   0.1068
B(  3-C ,  8-C ) :   1.3637 B(  4-C ,  5-C ) :   1.4388 B(  4-C , 22-H ) :   0.9406
B(  5-C ,  6-C ) :   1.3539 B(  5-C , 23-H ) :   0.9378 B(  6-C ,  7-C ) :   1.4477
B(  6-C , 10-C ) :   0.7830 B(  7-C ,  8-C ) :   1.3798 B(  7-C ,  9-F ) :   0.8956
B(  8-C , 24-H ) :   0.9269 B( 10-C , 11-C ) :   1.4192 B( 10-C , 15-C ) :   1.3958
B( 11-C , 12-C ) :   1.4372 B( 11-C , 25-H ) :   0.9369 B( 12-C , 13-C ) :   1.4132
B( 12-C , 26-H ) :   0.9507 B( 13-C , 14-C ) :   1.4175 B( 13-C , 27-H ) :   0.9462
B( 14-C , 15-C ) :   1.4372 B( 14-C , 28-H ) :   0.9493 B( 15-C , 29-H ) :   0.9415
B( 16-C , 17-O ) :   1.9345 B( 16-C , 18-O ) :   1.0377 B( 18-O , 30-H ) :   0.8591

Dispersion correction           -0.013437461
FINAL SINGLE POINT ENERGY      -829.577055652347

DIPOLE MOMENT
-------------

Method             : SCF
Type of density    : Electron Density
Multiplicity       :   1
Irrep              :   0
Energy             :  -829.5742516803668423 Eh
Relativity type    :
Basis              : AO
                                X                 Y                 Z
Electronic contribution:      1.624438239      -4.562068697       7.339607447
Nuclear contribution   :     -1.725213416       4.315793487      -7.447927011
                        -----------------------------------------
Total Dipole Moment    :     -0.100775177      -0.246275210      -0.108319565
                        -----------------------------------------
Magnitude (a.u.)       :      0.287298179
Magnitude (Debye)      :      0.730253937

Rotational constants in cm-1:             0.036770             0.006560             0.006116
Rotational constants in MHz :          1102.334318           196.653305           183.341727

                             ****ORCA TERMINATED NORMALLY****
TOTAL RUN TIME: 0 days 0 hours 1 minutes 1 seconds 916 msec
