                         Program Version 6.0.1  -  RELEASE   -
|  1> ! r2scan-3c def2/J RI DEFGRID2 scfconv6 printgap
|  2> %output
|  3>     printlevel normal
|  4> end
|  5> %cpcm
|  6>     smd true
|  7>     smdsolvent "water"
|  8> end
|  9> * xyz 0 1
| 10> C -3.8870946745 0.1987882588 -1.9575626881
| 11> C -3.3122404992 -0.3504719885 -0.6553706625
| 12> H -3.5750175168 -1.4033641167 -0.5300466003
| 13> C -1.8088346355 -0.2138979604 -0.5348301983
| 14> C -1.1111730557 0.8368586623 -1.1172135859
| 15> C 0.2587050552 0.9410299337 -0.9695629038
| 16> C 0.9875956616 0.0172561622 -0.2224353881
| 17> C 0.2609583212 -1.0147241119 0.3623438377
| 18> C -1.1044407756 -1.1448148432 0.2191533109
| 19> F 0.9095815403 -1.9703703853 1.0921897879
| 20> C 2.4464994527 0.1409815549 -0.0760182356
| 21> C 3.0601549961 -0.0106922961 1.1643677652
| 22> C 4.4318299263 0.1180637363 1.2858208128
| 23> C 5.2078081096 0.3946203044 0.1727020806
| 24> C 4.6050601799 0.5461817021 -1.0654210894
| 25> C 3.2337892055 0.424280814 -1.1899594303
| 26> C -3.857672008 0.4030378817 0.5460995802
| 27> O -4.1197403459 1.5842580977 0.5613535292
| 28> O -3.9740729325 -0.3763578944 1.6073554669
| 29> H -4.9131504894 -0.1382695059 -2.0780653831
| 30> H -3.8900920739 1.2855501958 -1.9388334401
| 31> H -3.2999117324 -0.1485209662 -2.8021686803
| 32> H -1.6377886756 1.582889863 -1.6883401056
| 33> H 0.7839175101 1.7664388942 -1.4239351027
| 34> H -1.606250609 -1.9714625579 0.6973350971
| 35> H 2.4605025953 -0.2183204624 2.038202471
| 36> H 4.8953552057 0.0020521264 2.2539168311
| 37> H 6.2784631495 0.4906332423 0.2698073496
| 38> H 5.2059452969 0.7581429434 -1.9368460279
| 39> H 2.7665992971 0.5277093532 -2.1577684875
| 40> H -4.2814514909 0.1017834321 2.4023647718
| 41> *
| 42>
| 43>                          ****END OF INPUT****

CARTESIAN COORDINATES (ANGSTROEM)
---------------------------------
  C     -3.887095    0.198788   -1.957563
  C     -3.312240   -0.350472   -0.655371
  H     -3.575018   -1.403364   -0.530047
  C     -1.808835   -0.213898   -0.534830
  C     -1.111173    0.836859   -1.117214
  C      0.258705    0.941030   -0.969563
  C      0.987596    0.017256   -0.222435
  C      0.260958   -1.014724    0.362344
  C     -1.104441   -1.144815    0.219153
  F      0.909582   -1.970370    1.092190
  C      2.446499    0.140982   -0.076018
  C      3.060155   -0.010692    1.164368
  C      4.431830    0.118064    1.285821
  C      5.207808    0.394620    0.172702
  C      4.605060    0.546182   -1.065421
  C      3.233789    0.424281   -1.189959
  C     -3.857672    0.403038    0.546100
  O     -4.119740    1.584258    0.561354
  O     -3.974073   -0.376358    1.607355
  H     -4.913150   -0.138270   -2.078065
  H     -3.890092    1.285550   -1.938833
  H     -3.299912   -0.148521   -2.802169
  H     -1.637789    1.582890   -1.688340
  H      0.783918    1.766439   -1.423935
  H     -1.606251   -1.971463    0.697335
  H      2.460503   -0.218320    2.038202
  H      4.895355    0.002052    2.253917
  H      6.278463    0.490633    0.269807
  H      5.205945    0.758143   -1.936846
  H      2.766599    0.527709   -2.157768
  H     -4.281451    0.101783    2.402365

 Total Charge           Charge          ....    0
 Multiplicity           Mult            ....    1
 Number of Electrons    NEL             ....  128
 Basis Dimension        Dim             ....  422

ORBITAL ENERGIES
----------------

  NO   OCC          E(Eh)            E(eV)
   0   2.0000     -24.502157      -666.7376
   1   2.0000     -19.004443      -517.1372
   2   2.0000     -18.948830      -515.6239
   3   2.0000     -10.172260      -276.8013
   4   2.0000     -10.124602      -275.5044
   5   2.0000     -10.059775      -273.7404
   6   2.0000     -10.058530      -273.7065
   7   2.0000     -10.056381      -273.6481
   8   2.0000     -10.052304      -273.5371
   9   2.0000     -10.044123      -273.3145
  10   2.0000     -10.042829      -273.2793
  11   2.0000     -10.037274      -273.1281
  12   2.0000     -10.036638      -273.1108
  13   2.0000     -10.036430      -273.1051
  14   2.0000     -10.035362      -273.0761
  15   2.0000     -10.035162      -273.0706
  16   2.0000     -10.034377      -273.0493
  17   2.0000     -10.020958      -272.6841
  18   2.0000      -1.186150       -32.2768
  19   2.0000      -1.082984       -29.4695
  20   2.0000      -0.991869       -26.9901
  21   2.0000      -0.852560       -23.1993
  22   2.0000      -0.830426       -22.5970
  23   2.0000      -0.785543       -21.3757
  24   2.0000      -0.741435       -20.1755
  25   2.0000      -0.724919       -19.7260
  26   2.0000      -0.718384       -19.5482
  27   2.0000      -0.691309       -18.8115
  28   2.0000      -0.648237       -17.6394
  29   2.0000      -0.607448       -16.5295
  30   2.0000      -0.596741       -16.2381
  31   2.0000      -0.571515       -15.5517
  32   2.0000      -0.565097       -15.3771
  33   2.0000      -0.550856       -14.9896
  34   2.0000      -0.508860       -13.8468
  35   2.0000      -0.489345       -13.3158
  36   2.0000      -0.477997       -13.0070
  37   2.0000      -0.462848       -12.5947
  38   2.0000      -0.457897       -12.4600
  39   2.0000      -0.455219       -12.3871
  40   2.0000      -0.441765       -12.0210
  41   2.0000      -0.434085       -11.8120
  42   2.0000      -0.419780       -11.4228
  43   2.0000      -0.415807       -11.3147
  44   2.0000      -0.406596       -11.0640
  45   2.0000      -0.392657       -10.6847
  46   2.0000      -0.388632       -10.5752
  47   2.0000      -0.380565       -10.3557
  48   2.0000      -0.371491       -10.1088
  49   2.0000      -0.368451       -10.0261
  50   2.0000      -0.354002        -9.6329
  51   2.0000      -0.346677        -9.4335
  52   2.0000      -0.342185        -9.3113
  53   2.0000      -0.332361        -9.0440
  54   2.0000      -0.327073        -8.9001
  55   2.0000      -0.316487        -8.6120
  56   2.0000      -0.311037        -8.4638
  57   2.0000      -0.304800        -8.2940
  58   2.0000      -0.301885        -8.2147
  59   2.0000      -0.269287        -7.3277
  60   2.0000      -0.253157        -6.8888
  61   2.0000      -0.242590        -6.6012
  62   2.0000      -0.239022        -6.5041
  63   2.0000      -0.217096        -5.9075
  64   0.0000      -0.064960        -1.7676
  65   0.0000      -0.037137        -1.0106
  66   0.0000      -0.035319        -0.9611
  67   0.0000      -0.029327        -0.7980
  68   0.0000      -0.001494        -0.0406

MULLIKEN ATOMIC CHARGES
-----------------------
   0 C :   -0.559130
   1 C :   -0.033513
   2 H :    0.205307
   3 C :    0.145344
   4 C :   -0.263404
   5 C :   -0.218040
   6 C :    0.071748
   7 C :    0.311347
   8 C :   -0.372251
   9 F :   -0.249896
  10 C :    0.060351
  11 C :   -0.212447
  12 C :   -0.210736
  13 C :   -0.163464
  14 C :   -0.211508
  15 C :   -0.213329
  16 C :    0.344135
  17 O :   -0.475566
  18 O :   -0.352713
  19 H :    0.178760
  20 H :    0.176664
  21 H :    0.183802
  22 H :    0.185721
  23 H :    0.186947
  24 H :    0.199723
  25 H :    0.183144
  26 H :    0.178648
  27 H :    0.180455
  28 H :    0.178833
  29 H :    0.184686
  30 H :    0.380383
Sum of atomic charges:    0.0000000

LOEWDIN ATOMIC CHARGES
----------------------
   0 C :   -0.383785
   1 C :   -0.140314
   2 H :    0.200821
   3 C :   -0.062423
   4 C :   -0.155427
   5 C :   -0.128632
   6 C :   -0.069537
   7 C :    0.229481
   8 C :   -0.134949
   9 F :   -0.299742
  10 C :   -0.074783
  11 C :   -0.146739
  12 C :   -0.168265
  13 C :   -0.171886
  14 C :   -0.167871
  15 C :   -0.149431
  16 C :    0.365522
  17 O :   -0.475337
  18 O :   -0.381981
  19 H :    0.167682
  20 H :    0.171623
  21 H :    0.168338
  22 H :    0.188625
  23 H :    0.189191
  24 H :    0.199735
  25 H :    0.185355
  26 H :    0.179349
  27 H :    0.178313
  28 H :    0.179375
  29 H :    0.185344
  30 H :    0.322347

  Mayer bond orders larger than 0.100000
B(  0-C ,  1-C ) :   0.8372 B(  0-C , 19-H ) :   0.9671 B(  0-C , 20-H ) :   0.9611
B(  0-C , 21-H ) :   0.9831 B(  1-C ,  2-H ) :   0.9757 B(  1-C ,  3-C ) :   0.8235
B(  1-C , 16-C ) :   0.9564 B(  3-C ,  4-C ) :   1.3534 B(  3-C ,  6-C ) :   0.1011
B(  3-C ,  8-C ) :   1.3698 B(  4-C ,  5-C ) :   1.4467 B(  4-C , 22-H ) :   0.9460
B(  5-C ,  6-C ) :   1.3415 B(  5-C , 23-H ) :   0.9404 B(  6-C ,  7-C ) :   1.4214
B(  6-C , 10-C ) :   0.7669 B(  7-C ,  8-C ) :   1.3576 B(  7-C ,  9-F ) :   0.8951
B(  8-C , 24-H ) :   0.9320 B( 10-C , 11-C ) :   1.3772 B( 10-C , 15-C ) :   1.3744
B( 11-C , 12-C ) :   1.4119 B( 11-C , 25-H ) :   0.9465 B( 12-C , 13-C ) :   1.3796
B( 12-C , 26-H ) :   0.9594 B( 13-C , 14-C ) :   1.3808 B( 13-C , 27-H ) :   0.9521
B( 14-C , 15-C ) :   1.4146 B( 14-C , 28-H ) :   0.9589 B( 15-C , 29-H ) :   0.9462
B( 16-C , 17-O ) :   1.8699 B( 16-C , 18-O ) :   1.0745 B( 18-O , 30-H ) :   0.8349

Dispersion correction           -0.013437461
FINAL SINGLE POINT ENERGY      -829.590360236697

DIPOLE MOMENT
-------------

Method             : SCF
Type of density    : Electron Density
Multiplicity       :   1
Irrep              :   0
Energy             :  -829.5875562647164543 Eh
Relativity type    :
Basis              : AO
                                X                 Y                 Z
Electronic contribution:      1.536867588      -4.743284912       7.259624694
Nuclear contribution   :     -1.725213416       4.315793487      -7.447927011
                        -----------------------------------------
Total Dipole Moment    :     -0.188345828      -0.427491425      -0.188302317
                        -----------------------------------------
Magnitude (a.u.)       :      0.503667383
Magnitude (Debye)      :      1.280220746

Rotational constants in cm-1:             0.036770             0.006560             0.006116
Rotational constants in MHz :          1102.334318           196.653305           183.341727

                             ****ORCA TERMINATED NORMALLY****
TOTAL RUN TIME: 0 days 0 hours 1 minutes 32 seconds 38 msec
