                         Program Version 6.0.0  -   RELEASE  -
|  1> ! pbe def2-sv(p) def2/J RI DEFGRID1 loosescf d4 GCP(DFT/SV(P)) printgap
|  2> %output
|  3>     printlevel normal
|  4> end
|  5> * xyz 0 1
|  6> C 1.4983886241 -1.8270059544 -0.181539301
|  7> O 0.2538442873 -1.2869461393 0.2540923944
|  8> C 0.0129992691 0.0076665165 -0.1698894238
|  9> O 0.9381952709 0.8588972333 0.4072330927
| 10> C 0.8600790302 2.2075446817 -0.0458454176
| 11> O -1.2608046495 0.3865311727 0.2142192524
| 12> C -2.3079573361 -0.3498681089 -0.4114306191
| 13> H 2.3288012348 -1.2536826475 0.2326431522
| 14> H 1.548689394 -1.819114868 -1.2743672887
| 15> H 1.5117466003 -2.8457255578 0.1934706463
| 16> H 0.1002314122 0.0598636003 -1.2913430567
| 17> H -0.1032099628 2.6443332285 0.2208982592
| 18> H 0.9998055303 2.2475900104 -1.1301665703
| 19> H 1.668582974 2.724154708 0.4621508002
| 20> H -2.2422418514 -0.2454526137 -1.4984674374
| 21> H -3.2267741428 0.0938523898 -0.0405930533
| 22> H -2.2508891032 -1.4036240906 -0.1353997889
| 23> *
| 24>
| 25>                          ****END OF INPUT****

CARTESIAN COORDINATES (ANGSTROEM)
---------------------------------
  C      1.498389   -1.827006   -0.181539
  O      0.253844   -1.286946    0.254092
  C      0.012999    0.007667   -0.169889
  O      0.938195    0.858897    0.407233
  C      0.860079    2.207545   -0.045845
  O     -1.260805    0.386531    0.214219
  C     -2.307957   -0.349868   -0.411431
  H      2.328801   -1.253683    0.232643
  H      1.548689   -1.819115   -1.274367
  H      1.511747   -2.845726    0.193471
  H      0.100231    0.059864   -1.291343
  H     -0.103210    2.644333    0.220898
  H      0.999806    2.247590   -1.130167
  H      1.668583    2.724155    0.462151
  H     -2.242242   -0.245453   -1.498467
  H     -3.226774    0.093852   -0.040593
  H     -2.250889   -1.403624   -0.135400

 Total Charge           Charge          ....    0
 Multiplicity           Mult            ....    1
 Number of Electrons    NEL             ....   58
 Basis Dimension        Dim             ....  118

ORBITAL ENERGIES
----------------

  NO   OCC          E(Eh)            E(eV)
   0   2.0000     -18.760392      -510.4962
   1   2.0000     -18.760363      -510.4954
   2   2.0000     -18.760342      -510.4948
   3   2.0000     -10.022321      -272.7212
   4   2.0000      -9.926975      -270.1267
   5   2.0000      -9.926924      -270.1253
   6   2.0000      -9.926878      -270.1241
   7   2.0000      -1.001870       -27.2623
   8   2.0000      -0.916271       -24.9330
   9   2.0000      -0.916233       -24.9320
  10   2.0000      -0.667537       -18.1646
  11   2.0000      -0.614918       -16.7328
  12   2.0000      -0.614868       -16.7314
  13   2.0000      -0.532394       -14.4872
  14   2.0000      -0.469172       -12.7668
  15   2.0000      -0.466706       -12.6997
  16   2.0000      -0.466690       -12.6993
  17   2.0000      -0.398847       -10.8532
  18   2.0000      -0.398845       -10.8531
  19   2.0000      -0.378742       -10.3061
  20   2.0000      -0.378723       -10.3056
  21   2.0000      -0.373992       -10.1768
  22   2.0000      -0.364993        -9.9320
  23   2.0000      -0.287910        -7.8344
  24   2.0000      -0.287882        -7.8337
  25   2.0000      -0.276224        -7.5164
  26   2.0000      -0.227720        -6.1966
  27   2.0000      -0.227647        -6.1946
  28   2.0000      -0.217987        -5.9317
  29   0.0000       0.040627         1.1055
  30   0.0000       0.066121         1.7993
  31   0.0000       0.066130         1.7995
  32   0.0000       0.091040         2.4773
  33   0.0000       0.093379         2.5410

MULLIKEN ATOMIC CHARGES
-----------------------
   0 C :   -0.097790
   1 O :   -0.302506
   2 C :    0.251366
   3 O :   -0.302524
   4 C :   -0.098086
   5 O :   -0.302381
   6 C :   -0.097720
   7 H :    0.111287
   8 H :    0.084116
   9 H :    0.117646
  10 H :    0.010294
  11 H :    0.111331
  12 H :    0.084208
  13 H :    0.117761
  14 H :    0.084139
  15 H :    0.117694
  16 H :    0.111166
Sum of atomic charges:    0.0000000

LOEWDIN ATOMIC CHARGES
----------------------
   0 C :   -0.204752
   1 O :   -0.154939
   2 C :    0.052169
   3 O :   -0.154844
   4 C :   -0.204817
   5 O :   -0.154823
   6 C :   -0.204721
   7 H :    0.109020
   8 H :    0.099686
   9 H :    0.118097
  10 H :    0.046221
  11 H :    0.109042
  12 H :    0.099701
  13 H :    0.118154
  14 H :    0.099694
  15 H :    0.118116
  16 H :    0.108996

  Mayer bond orders larger than 0.100000
B(  0-C ,  1-O ) :   0.9856 B(  0-C ,  7-H ) :   0.9464 B(  0-C ,  8-H ) :   0.9406
B(  0-C ,  9-H ) :   0.9647 B(  1-O ,  2-C ) :   1.0818 B(  2-C ,  3-O ) :   1.0815
B(  2-C ,  5-O ) :   1.0817 B(  2-C , 10-H ) :   0.8939 B(  3-O ,  4-C ) :   0.9856
B(  4-C , 11-H ) :   0.9464 B(  4-C , 12-H ) :   0.9406 B(  4-C , 13-H ) :   0.9647
B(  5-O ,  6-C ) :   0.9857 B(  6-C , 14-H ) :   0.9406 B(  6-C , 15-H ) :   0.9647
B(  6-C , 16-H ) :   0.9464

Dispersion correction           -0.011625733
FINAL SINGLE POINT ENERGY      -383.233894578819

DIPOLE MOMENT
-------------

Method             : SCF
Type of density    : Electron Density
Multiplicity       :   1
Irrep              :   0
Energy             :  -383.3134839039994972 Eh
Relativity type    :
Basis              : AO
                                X                 Y                 Z
Electronic contribution:     -0.251321369      -0.151409409       3.199959423
Nuclear contribution   :      0.313024726       0.189076503      -3.984715620
                        -----------------------------------------
Total Dipole Moment    :      0.061703358       0.037667094      -0.784756197
                        -----------------------------------------
Magnitude (a.u.)       :      0.788078932
Magnitude (Debye)      :      2.003137454

Rotational constants in cm-1:             0.089183             0.089099             0.047898
Rotational constants in MHz :          2673.628897          2671.109079          1435.941464

                             ****ORCA TERMINATED NORMALLY****
TOTAL RUN TIME: 0 days 0 hours 0 minutes 9 seconds 384 msec
