                         Program Version 6.0.0  -   RELEASE  -
|  1> ! r2scan-3c def2/J RI DEFGRID2 scfconv6 printgap
|  2> %output
|  3>     printlevel normal
|  4> end
|  5> * xyz 0 1
|  6> C -1.8305360842 -1.2657594187 -0.3884214196
|  7> C -2.4370999292 -0.0624184719 0.323072368
|  8> C -1.5873222073 1.2020603721 0.200093841
|  9> C -0.2040580371 1.0609723815 0.8431500905
| 10> C 0.7786918728 0.3724471277 -0.066418068
| 11> O 0.9022971893 0.584699253 -1.2538472449
| 12> O 1.5420028672 -0.493953904 0.5973708855
| 13> C 2.5499502228 -1.1863494927 -0.1432941353
| 14> H -2.5242553226 -2.1029069338 -0.3759531722
| 15> H -1.602090786 -1.0209003523 -1.424098642
| 16> H -0.9108910219 -1.5827686935 0.0981944627
| 17> H -3.4197636281 0.144263343 -0.1053148709
| 18> H -2.5782898278 -0.3009424499 1.3792931512
| 19> H -2.1166824566 2.0255731355 0.6802890554
| 20> H -1.4515320192 1.4533587176 -0.8541720379
| 21> H -0.2525372777 0.518945327 1.7868035861
| 22> H 0.2055872184 2.0554956216 1.033486744
| 23> H 3.0557759867 -1.8239270029 0.5746570543
| 24> H 3.2417441411 -0.4713427873 -0.5898775006
| 25> H 2.0896050395 -1.7767127817 -0.936728075
| 26> *
| 27>
| 28>                          ****END OF INPUT****

CARTESIAN COORDINATES (ANGSTROEM)
---------------------------------
  C     -1.830536   -1.265759   -0.388421
  C     -2.437100   -0.062418    0.323072
  C     -1.587322    1.202060    0.200094
  C     -0.204058    1.060972    0.843150
  C      0.778692    0.372447   -0.066418
  O      0.902297    0.584699   -1.253847
  O      1.542003   -0.493954    0.597371
  C      2.549950   -1.186349   -0.143294
  H     -2.524255   -2.102907   -0.375953
  H     -1.602091   -1.020900   -1.424099
  H     -0.910891   -1.582769    0.098194
  H     -3.419764    0.144263   -0.105315
  H     -2.578290   -0.300942    1.379293
  H     -2.116682    2.025573    0.680289
  H     -1.451532    1.453359   -0.854172
  H     -0.252537    0.518945    1.786804
  H      0.205587    2.055496    1.033487
  H      3.055776   -1.823927    0.574657
  H      3.241744   -0.471343   -0.589878
  H      2.089605   -1.776713   -0.936728

 Total Charge           Charge          ....    0
 Multiplicity           Mult            ....    1
 Number of Electrons    NEL             ....   64
 Basis Dimension        Dim             ....  222

ORBITAL ENERGIES
----------------

  NO   OCC          E(Eh)            E(eV)
   0   2.0000     -18.999271      -516.9964
   1   2.0000     -18.929497      -515.0978
   2   2.0000     -10.152623      -276.2669
   3   2.0000     -10.086486      -274.4672
   4   2.0000     -10.042391      -273.2674
   5   2.0000     -10.030016      -272.9306
   6   2.0000     -10.026558      -272.8365
   7   2.0000     -10.014430      -272.5065
   8   2.0000      -1.072839       -29.1934
   9   2.0000      -0.976667       -26.5765
  10   2.0000      -0.777312       -21.1517
  11   2.0000      -0.724197       -19.7064
  12   2.0000      -0.685146       -18.6438
  13   2.0000      -0.622555       -16.9406
  14   2.0000      -0.550703       -14.9854
  15   2.0000      -0.524175       -14.2635
  16   2.0000      -0.473172       -12.8757
  17   2.0000      -0.462803       -12.5935
  18   2.0000      -0.441913       -12.0251
  19   2.0000      -0.428242       -11.6531
  20   2.0000      -0.413281       -11.2460
  21   2.0000      -0.391659       -10.6576
  22   2.0000      -0.373479       -10.1629
  23   2.0000      -0.365380        -9.9425
  24   2.0000      -0.348951        -9.4954
  25   2.0000      -0.338733        -9.2174
  26   2.0000      -0.324177        -8.8213
  27   2.0000      -0.300772        -8.1844
  28   2.0000      -0.298131        -8.1126
  29   2.0000      -0.292160        -7.9501
  30   2.0000      -0.274204        -7.4615
  31   2.0000      -0.238024        -6.4770
  32   0.0000      -0.015379        -0.4185
  33   0.0000       0.063846         1.7373
  34   0.0000       0.090706         2.4682
  35   0.0000       0.103609         2.8193
  36   0.0000       0.122488         3.3331

MULLIKEN ATOMIC CHARGES
-----------------------
   0 C :   -0.485249
   1 C :   -0.286208
   2 C :   -0.240912
   3 C :   -0.298901
   4 C :    0.330408
   5 O :   -0.415779
   6 O :   -0.188684
   7 C :   -0.295223
   8 H :    0.147783
   9 H :    0.164659
  10 H :    0.154253
  11 H :    0.143668
  12 H :    0.141307
  13 H :    0.142989
  14 H :    0.174682
  15 H :    0.169051
  16 H :    0.168798
  17 H :    0.150508
  18 H :    0.161049
  19 H :    0.161802
Sum of atomic charges:   -0.0000000

LOEWDIN ATOMIC CHARGES
----------------------
   0 C :   -0.418774
   1 C :   -0.310070
   2 C :   -0.289981
   3 C :   -0.229826
   4 C :    0.343672
   5 O :   -0.432679
   6 O :   -0.611583
   7 C :   -0.046286
   8 H :    0.150015
   9 H :    0.159260
  10 H :    0.157933
  11 H :    0.153489
  12 H :    0.150744
  13 H :    0.155861
  14 H :    0.174036
  15 H :    0.179397
  16 H :    0.184927
  17 H :    0.176045
  18 H :    0.176909
  19 H :    0.176912

  Mayer bond orders larger than 0.100000
B(  0-C ,  1-C ) :   0.8879 B(  0-C ,  8-H ) :   0.9623 B(  0-C ,  9-H ) :   0.9730
B(  0-C , 10-H ) :   0.9710 B(  1-C ,  2-C ) :   0.9315 B(  1-C , 11-H ) :   0.9584
B(  1-C , 12-H ) :   0.9997 B(  2-C ,  3-C ) :   0.8548 B(  2-C , 13-H ) :   0.9626
B(  2-C , 14-H ) :   0.9736 B(  3-C ,  4-C ) :   0.9515 B(  3-C , 15-H ) :   0.9954
B(  3-C , 16-H ) :   0.9174 B(  4-C ,  5-O ) :   1.8257 B(  4-C ,  6-O ) :   1.0493
B(  6-O ,  7-C ) :   0.8549 B(  7-C , 17-H ) :   0.9689 B(  7-C , 18-H ) :   0.9628
B(  7-C , 19-H ) :   0.9628

Dispersion correction           -0.005477272
FINAL SINGLE POINT ENERGY      -386.231028423999

DIPOLE MOMENT
-------------

Method             : SCF
Type of density    : Electron Density
Multiplicity       :   1
Irrep              :   0
Energy             :  -386.2376414433019249 Eh
Relativity type    :
Basis              : AO
                                X                 Y                 Z
Electronic contribution:      5.905039154       2.418101007      -0.551364972
Nuclear contribution   :     -5.839803097      -2.702324052       1.178528607
                        -----------------------------------------
Total Dipole Moment    :      0.065236057      -0.284223045       0.627163634
                        -----------------------------------------
Magnitude (a.u.)       :      0.691644928
Magnitude (Debye)      :      1.758021695

Rotational constants in cm-1:             0.112321             0.042309             0.037922
Rotational constants in MHz :          3367.300422          1268.386565          1136.858047

                             ****ORCA TERMINATED NORMALLY****
TOTAL RUN TIME: 0 days 0 hours 0 minutes 26 seconds 785 msec
