                         Program Version 6.0.0  -   RELEASE  -
|  1> ! r2scan-3c def2/J RI DEFGRID2 scfconv6 printgap
|  2> %output
|  3>     printlevel normal
|  4> end
|  5> %cpcm
|  6>     smd true
|  7>     smdsolvent "water"
|  8> end
|  9> * xyz 0 1
| 10> C -1.8305360842 -1.2657594187 -0.3884214196
| 11> C -2.4370999292 -0.0624184719 0.323072368
| 12> C -1.5873222073 1.2020603721 0.200093841
| 13> C -0.2040580371 1.0609723815 0.8431500905
| 14> C 0.7786918728 0.3724471277 -0.066418068
| 15> O 0.9022971893 0.584699253 -1.2538472449
| 16> O 1.5420028672 -0.493953904 0.5973708855
| 17> C 2.5499502228 -1.1863494927 -0.1432941353
| 18> H -2.5242553226 -2.1029069338 -0.3759531722
| 19> H -1.602090786 -1.0209003523 -1.424098642
| 20> H -0.9108910219 -1.5827686935 0.0981944627
| 21> H -3.4197636281 0.144263343 -0.1053148709
| 22> H -2.5782898278 -0.3009424499 1.3792931512
| 23> H -2.1166824566 2.0255731355 0.6802890554
| 24> H -1.4515320192 1.4533587176 -0.8541720379
| 25> H -0.2525372777 0.518945327 1.7868035861
| 26> H 0.2055872184 2.0554956216 1.033486744
| 27> H 3.0557759867 -1.8239270029 0.5746570543
| 28> H 3.2417441411 -0.4713427873 -0.5898775006
| 29> H 2.0896050395 -1.7767127817 -0.936728075
| 30> *
| 31>
| 32>                          ****END OF INPUT****

CARTESIAN COORDINATES (ANGSTROEM)
---------------------------------
  C     -1.830536   -1.265759   -0.388421
  C     -2.437100   -0.062418    0.323072
  C     -1.587322    1.202060    0.200094
  C     -0.204058    1.060972    0.843150
  C      0.778692    0.372447   -0.066418
  O      0.902297    0.584699   -1.253847
  O      1.542003   -0.493954    0.597371
  C      2.549950   -1.186349   -0.143294
  H     -2.524255   -2.102907   -0.375953
  H     -1.602091   -1.020900   -1.424099
  H     -0.910891   -1.582769    0.098194
  H     -3.419764    0.144263   -0.105315
  H     -2.578290   -0.300942    1.379293
  H     -2.116682    2.025573    0.680289
  H     -1.451532    1.453359   -0.854172
  H     -0.252537    0.518945    1.786804
  H      0.205587    2.055496    1.033487
  H      3.055776   -1.823927    0.574657
  H      3.241744   -0.471343   -0.589878
  H      2.089605   -1.776713   -0.936728

 Total Charge           Charge          ....    0
 Multiplicity           Mult            ....    1
 Number of Electrons    NEL             ....   64
 Basis Dimension        Dim             ....  222

ORBITAL ENERGIES
----------------

  NO   OCC          E(Eh)            E(eV)
   0   2.0000     -19.003987      -517.1248
   1   2.0000     -18.944175      -515.4972
   2   2.0000     -10.162190      -276.5273
   3   2.0000     -10.076121      -274.1852
   4   2.0000     -10.036074      -273.0954
   5   2.0000     -10.024261      -272.7740
   6   2.0000     -10.018640      -272.6211
   7   2.0000     -10.009227      -272.3649
   8   2.0000      -1.079166       -29.3656
   9   2.0000      -0.989165       -26.9166
  10   2.0000      -0.772222       -21.0132
  11   2.0000      -0.719899       -19.5895
  12   2.0000      -0.679317       -18.4851
  13   2.0000      -0.616804       -16.7841
  14   2.0000      -0.545702       -14.8493
  15   2.0000      -0.521862       -14.2006
  16   2.0000      -0.473623       -12.8879
  17   2.0000      -0.462478       -12.5847
  18   2.0000      -0.451345       -12.2817
  19   2.0000      -0.421597       -11.4722
  20   2.0000      -0.409336       -11.1386
  21   2.0000      -0.390299       -10.6206
  22   2.0000      -0.369987       -10.0679
  23   2.0000      -0.360137        -9.7998
  24   2.0000      -0.347202        -9.4478
  25   2.0000      -0.333975        -9.0879
  26   2.0000      -0.325307        -8.8521
  27   2.0000      -0.295696        -8.0463
  28   2.0000      -0.292711        -7.9651
  29   2.0000      -0.286881        -7.8064
  30   2.0000      -0.279534        -7.6065
  31   2.0000      -0.253529        -6.8989
  32   0.0000      -0.022517        -0.6127
  33   0.0000       0.068964         1.8766
  34   0.0000       0.098418         2.6781
  35   0.0000       0.114008         3.1023
  36   0.0000       0.128537         3.4977

MULLIKEN ATOMIC CHARGES
-----------------------
   0 C :   -0.524993
   1 C :   -0.287315
   2 C :   -0.255865
   3 C :   -0.315362
   4 C :    0.369889
   5 O :   -0.500076
   6 O :   -0.203097
   7 C :   -0.329517
   8 H :    0.161510
   9 H :    0.163642
  10 H :    0.165745
  11 H :    0.154348
  12 H :    0.154850
  13 H :    0.161747
  14 H :    0.163813
  15 H :    0.185405
  16 H :    0.201194
  17 H :    0.178389
  18 H :    0.177672
  19 H :    0.178021
Sum of atomic charges:    0.0000000

LOEWDIN ATOMIC CHARGES
----------------------
   0 C :   -0.425895
   1 C :   -0.310818
   2 C :   -0.289754
   3 C :   -0.226747
   4 C :    0.353099
   5 O :   -0.493044
   6 O :   -0.613716
   7 C :   -0.044138
   8 H :    0.154184
   9 H :    0.156436
  10 H :    0.160371
  11 H :    0.156281
  12 H :    0.155891
  13 H :    0.162681
  14 H :    0.168595
  15 H :    0.187389
  16 H :    0.196446
  17 H :    0.188198
  18 H :    0.182270
  19 H :    0.182272

  Mayer bond orders larger than 0.100000
B(  0-C ,  1-C ) :   0.8717 B(  0-C ,  8-H ) :   0.9591 B(  0-C ,  9-H ) :   0.9749
B(  0-C , 10-H ) :   0.9681 B(  1-C ,  2-C ) :   0.9297 B(  1-C , 11-H ) :   0.9593
B(  1-C , 12-H ) :   0.9965 B(  2-C ,  3-C ) :   0.8382 B(  2-C , 13-H ) :   0.9601
B(  2-C , 14-H ) :   0.9785 B(  3-C ,  4-C ) :   0.9591 B(  3-C , 15-H ) :   0.9845
B(  3-C , 16-H ) :   0.9112 B(  4-C ,  5-O ) :   1.7609 B(  4-C ,  6-O ) :   1.0702
B(  6-O ,  7-C ) :   0.8352 B(  7-C , 17-H ) :   0.9589 B(  7-C , 18-H ) :   0.9574
B(  7-C , 19-H ) :   0.9573

Dispersion correction           -0.005477272
FINAL SINGLE POINT ENERGY      -386.236049063646

DIPOLE MOMENT
-------------

Method             : SCF
Type of density    : Electron Density
Multiplicity       :   1
Irrep              :   0
Energy             :  -386.2426620829491526 Eh
Relativity type    :
Basis              : AO
                                X                 Y                 Z
Electronic contribution:      5.901263926       2.328878610      -0.187334744
Nuclear contribution   :     -5.839803097      -2.702324052       1.178528607
                        -----------------------------------------
Total Dipole Moment    :      0.061460829      -0.373445442       0.991193862
                        -----------------------------------------
Magnitude (a.u.)       :      1.060992085
Magnitude (Debye)      :      2.696827560

Rotational constants in cm-1:             0.112321             0.042309             0.037922
Rotational constants in MHz :          3367.300422          1268.386565          1136.858047

                             ****ORCA TERMINATED NORMALLY****
TOTAL RUN TIME: 0 days 0 hours 0 minutes 34 seconds 991 msec
