                         Program Version 6.0.0  -   RELEASE  -
|  1> ! r2scan-3c def2/J RI DEFGRID2 scfconv6 printgap
|  2> %output
|  3>     printlevel normal
|  4> end
|  5> * xyz 0 1
|  6> C 3.6286510867 -0.5133281939 0.1470067362
|  7> C 2.1614554672 -0.5136196449 -0.2679718178
|  8> C 1.4189937567 0.6888519592 0.3127887496
|  9> C -0.0248633019 0.8141613103 -0.1807763114
| 10> C -0.9049309842 -0.3068994121 0.3443282408
| 11> Cl -2.6149362744 -0.0494759298 -0.1533975509
| 12> H 3.7173954153 -0.5477765733 1.2303632927
| 13> H 4.1261071782 0.3861443391 -0.2083165944
| 14> H 4.1431558297 -1.3765693966 -0.2673058996
| 15> H 2.0939798772 -0.4870414957 -1.3574309061
| 16> H 1.6957079932 -1.4386430299 0.0743212697
| 17> H 1.9531840145 1.5977261756 0.0297679511
| 18> H 1.4253135451 0.6269458145 1.4026206653
| 19> H -0.0422214974 0.8083105223 -1.2719834949
| 20> H -0.434127896 1.7683558413 0.1560150313
| 21> H -0.6207052152 -1.2757217839 -0.0599204661
| 22> H -0.9066918364 -0.3373360398 1.4326857692
| 23> *
| 24>
| 25>                          ****END OF INPUT****

CARTESIAN COORDINATES (ANGSTROEM)
---------------------------------
  C      3.628651   -0.513328    0.147007
  C      2.161455   -0.513620   -0.267972
  C      1.418994    0.688852    0.312789
  C     -0.024863    0.814161   -0.180776
  C     -0.904931   -0.306899    0.344328
  Cl    -2.614936   -0.049476   -0.153398
  H      3.717395   -0.547777    1.230363
  H      4.126107    0.386144   -0.208317
  H      4.143156   -1.376569   -0.267306
  H      2.093980   -0.487041   -1.357431
  H      1.695708   -1.438643    0.074321
  H      1.953184    1.597726    0.029768
  H      1.425314    0.626946    1.402621
  H     -0.042221    0.808311   -1.271983
  H     -0.434128    1.768356    0.156015
  H     -0.620705   -1.275722   -0.059920
  H     -0.906692   -0.337336    1.432686

 Total Charge           Charge          ....    0
 Multiplicity           Mult            ....    1
 Number of Electrons    NEL             ....   58
 Basis Dimension        Dim             ....  177

ORBITAL ENERGIES
----------------

  NO   OCC          E(Eh)            E(eV)
   0   2.0000    -101.196274     -2753.6906
   1   2.0000     -10.090541      -274.5776
   2   2.0000     -10.040007      -273.2025
   3   2.0000     -10.036286      -273.1012
   4   2.0000     -10.033662      -273.0298
   5   2.0000     -10.022938      -272.7380
   6   2.0000      -9.352292      -254.4888
   7   2.0000      -7.098495      -193.1599
   8   2.0000      -7.088360      -192.8841
   9   2.0000      -7.088320      -192.8830
  10   2.0000      -0.820906       -22.3380
  11   2.0000      -0.772063       -21.0089
  12   2.0000      -0.712927       -19.3997
  13   2.0000      -0.637186       -17.3387
  14   2.0000      -0.585624       -15.9356
  15   2.0000      -0.547084       -14.8869
  16   2.0000      -0.455121       -12.3845
  17   2.0000      -0.441731       -12.0201
  18   2.0000      -0.417876       -11.3710
  19   2.0000      -0.398537       -10.8447
  20   2.0000      -0.382994       -10.4218
  21   2.0000      -0.366243        -9.9660
  22   2.0000      -0.345820        -9.4103
  23   2.0000      -0.333015        -9.0618
  24   2.0000      -0.313832        -8.5398
  25   2.0000      -0.306354        -8.3363
  26   2.0000      -0.297623        -8.0987
  27   2.0000      -0.262521        -7.1436
  28   2.0000      -0.260317        -7.0836
  29   0.0000       0.007511         0.2044
  30   0.0000       0.092356         2.5131
  31   0.0000       0.097939         2.6651
  32   0.0000       0.105201         2.8627
  33   0.0000       0.119373         3.2483

MULLIKEN ATOMIC CHARGES
-----------------------
   0 C :   -0.465575
   1 C :   -0.251406
   2 C :   -0.280142
   3 C :   -0.250458
   4 C :   -0.181686
   5 Cl:   -0.202555
   6 H :    0.140977
   7 H :    0.143636
   8 H :    0.148225
   9 H :    0.141758
  10 H :    0.137164
  11 H :    0.147070
  12 H :    0.138635
  13 H :    0.151529
  14 H :    0.159073
  15 H :    0.164911
  16 H :    0.158843
Sum of atomic charges:   -0.0000000

LOEWDIN ATOMIC CHARGES
----------------------
   0 C :   -0.423037
   1 C :   -0.318281
   2 C :   -0.310046
   3 C :   -0.329256
   4 C :   -0.322919
   5 Cl:   -0.003819
   6 H :    0.150384
   7 H :    0.150473
   8 H :    0.151272
   9 H :    0.152942
  10 H :    0.149718
  11 H :    0.159253
  12 H :    0.155287
  13 H :    0.161222
  14 H :    0.162322
  15 H :    0.157362
  16 H :    0.157123

  Mayer bond orders larger than 0.100000
B(  0-C ,  1-C ) :   0.9089 B(  0-C ,  6-H ) :   0.9799 B(  0-C ,  7-H ) :   0.9848
B(  0-C ,  8-H ) :   0.9738 B(  1-C ,  2-C ) :   0.9128 B(  1-C ,  9-H ) :   0.9727
B(  1-C , 10-H ) :   0.9678 B(  2-C ,  3-C ) :   0.8807 B(  2-C , 11-H ) :   0.9691
B(  2-C , 12-H ) :   0.9789 B(  3-C ,  4-C ) :   0.9298 B(  3-C , 13-H ) :   0.9783
B(  3-C , 14-H ) :   0.9683 B(  4-C ,  5-Cl) :   0.9782 B(  4-C , 15-H ) :   0.9634
B(  4-C , 16-H ) :   0.9600

Dispersion correction           -0.004248931
FINAL SINGLE POINT ENERGY      -657.267719901751

DIPOLE MOMENT
-------------

Method             : SCF
Type of density    : Electron Density
Multiplicity       :   1
Irrep              :   0
Energy             :  -657.2736520907972135 Eh
Relativity type    :
Basis              : AO
                                X                 Y                 Z
Electronic contribution:    -18.670154548       0.159074130      -1.116524352
Nuclear contribution   :     19.600397594      -0.192157416       1.294932334
                        -----------------------------------------
Total Dipole Moment    :      0.930243046      -0.033083286       0.178407982
                        -----------------------------------------
Magnitude (a.u.)       :      0.947774254
Magnitude (Debye)      :      2.409050702

Rotational constants in cm-1:             0.356919             0.029641             0.028635
Rotational constants in MHz :         10700.156597           888.618057           858.460093

                             ****ORCA TERMINATED NORMALLY****
TOTAL RUN TIME: 0 days 0 hours 0 minutes 18 seconds 958 msec
