                         Program Version 6.0.0  -   RELEASE  -
|  1> ! r2scan-3c def2/J RI DEFGRID2 scfconv6 printgap
|  2> %output
|  3>     printlevel normal
|  4> end
|  5> %cpcm
|  6>     smd true
|  7>     smdsolvent "water"
|  8> end
|  9> * xyz 0 1
| 10> C 3.6286510867 -0.5133281939 0.1470067362
| 11> C 2.1614554672 -0.5136196449 -0.2679718178
| 12> C 1.4189937567 0.6888519592 0.3127887496
| 13> C -0.0248633019 0.8141613103 -0.1807763114
| 14> C -0.9049309842 -0.3068994121 0.3443282408
| 15> Cl -2.6149362744 -0.0494759298 -0.1533975509
| 16> H 3.7173954153 -0.5477765733 1.2303632927
| 17> H 4.1261071782 0.3861443391 -0.2083165944
| 18> H 4.1431558297 -1.3765693966 -0.2673058996
| 19> H 2.0939798772 -0.4870414957 -1.3574309061
| 20> H 1.6957079932 -1.4386430299 0.0743212697
| 21> H 1.9531840145 1.5977261756 0.0297679511
| 22> H 1.4253135451 0.6269458145 1.4026206653
| 23> H -0.0422214974 0.8083105223 -1.2719834949
| 24> H -0.434127896 1.7683558413 0.1560150313
| 25> H -0.6207052152 -1.2757217839 -0.0599204661
| 26> H -0.9066918364 -0.3373360398 1.4326857692
| 27> *
| 28>
| 29>                          ****END OF INPUT****

CARTESIAN COORDINATES (ANGSTROEM)
---------------------------------
  C      3.628651   -0.513328    0.147007
  C      2.161455   -0.513620   -0.267972
  C      1.418994    0.688852    0.312789
  C     -0.024863    0.814161   -0.180776
  C     -0.904931   -0.306899    0.344328
  Cl    -2.614936   -0.049476   -0.153398
  H      3.717395   -0.547777    1.230363
  H      4.126107    0.386144   -0.208317
  H      4.143156   -1.376569   -0.267306
  H      2.093980   -0.487041   -1.357431
  H      1.695708   -1.438643    0.074321
  H      1.953184    1.597726    0.029768
  H      1.425314    0.626946    1.402621
  H     -0.042221    0.808311   -1.271983
  H     -0.434128    1.768356    0.156015
  H     -0.620705   -1.275722   -0.059920
  H     -0.906692   -0.337336    1.432686

 Total Charge           Charge          ....    0
 Multiplicity           Mult            ....    1
 Number of Electrons    NEL             ....   58
 Basis Dimension        Dim             ....  177

ORBITAL ENERGIES
----------------

  NO   OCC          E(Eh)            E(eV)
   0   2.0000    -101.198081     -2753.7398
   1   2.0000     -10.079825      -274.2860
   2   2.0000     -10.026889      -272.8455
   3   2.0000     -10.019998      -272.6580
   4   2.0000     -10.016574      -272.5648
   5   2.0000     -10.007451      -272.3166
   6   2.0000      -9.354493      -254.5487
   7   2.0000      -7.100270      -193.2082
   8   2.0000      -7.090738      -192.9488
   9   2.0000      -7.090702      -192.9478
  10   2.0000      -0.816932       -22.2299
  11   2.0000      -0.758652       -20.6440
  12   2.0000      -0.700879       -19.0719
  13   2.0000      -0.625335       -17.0162
  14   2.0000      -0.571875       -15.5615
  15   2.0000      -0.531771       -14.4702
  16   2.0000      -0.440868       -11.9966
  17   2.0000      -0.427667       -11.6374
  18   2.0000      -0.406908       -11.0725
  19   2.0000      -0.385689       -10.4951
  20   2.0000      -0.369535       -10.0556
  21   2.0000      -0.356087        -9.6896
  22   2.0000      -0.332940        -9.0598
  23   2.0000      -0.318696        -8.6722
  24   2.0000      -0.300644        -8.1809
  25   2.0000      -0.289421        -7.8755
  26   2.0000      -0.282985        -7.7004
  27   2.0000      -0.263930        -7.1819
  28   2.0000      -0.260509        -7.0888
  29   0.0000       0.012158         0.3308
  30   0.0000       0.105479         2.8702
  31   0.0000       0.113672         3.0932
  32   0.0000       0.118950         3.2368
  33   0.0000       0.136333         3.7098

MULLIKEN ATOMIC CHARGES
-----------------------
   0 C :   -0.509328
   1 C :   -0.258205
   2 C :   -0.294160
   3 C :   -0.267900
   4 C :   -0.187924
   5 Cl:   -0.251799
   6 H :    0.151977
   7 H :    0.154152
   8 H :    0.155943
   9 H :    0.148522
  10 H :    0.151327
  11 H :    0.157215
  12 H :    0.152542
  13 H :    0.160958
  14 H :    0.164263
  15 H :    0.188383
  16 H :    0.184034
Sum of atomic charges:    0.0000000

LOEWDIN ATOMIC CHARGES
----------------------
   0 C :   -0.432768
   1 C :   -0.318820
   2 C :   -0.308992
   3 C :   -0.330980
   4 C :   -0.317343
   5 Cl:   -0.037448
   6 H :    0.152407
   7 H :    0.152275
   8 H :    0.152358
   9 H :    0.154451
  10 H :    0.154204
  11 H :    0.161969
  12 H :    0.159741
  13 H :    0.162813
  14 H :    0.162965
  15 H :    0.166516
  16 H :    0.166652

  Mayer bond orders larger than 0.100000
B(  0-C ,  1-C ) :   0.8956 B(  0-C ,  6-H ) :   0.9785 B(  0-C ,  7-H ) :   0.9826
B(  0-C ,  8-H ) :   0.9721 B(  1-C ,  2-C ) :   0.9112 B(  1-C ,  9-H ) :   0.9733
B(  1-C , 10-H ) :   0.9670 B(  2-C ,  3-C ) :   0.8873 B(  2-C , 11-H ) :   0.9688
B(  2-C , 12-H ) :   0.9769 B(  3-C ,  4-C ) :   0.9267 B(  3-C , 13-H ) :   0.9776
B(  3-C , 14-H ) :   0.9668 B(  4-C ,  5-Cl) :   0.9358 B(  4-C , 15-H ) :   0.9557
B(  4-C , 16-H ) :   0.9532

Dispersion correction           -0.004248931
FINAL SINGLE POINT ENERGY      -657.269343546890

DIPOLE MOMENT
-------------

Method             : SCF
Type of density    : Electron Density
Multiplicity       :   1
Irrep              :   0
Energy             :  -657.2752757359370435 Eh
Relativity type    :
Basis              : AO
                                X                 Y                 Z
Electronic contribution:    -18.454997185       0.110550831      -1.028186723
Nuclear contribution   :     19.600397594      -0.192157416       1.294932334
                        -----------------------------------------
Total Dipole Moment    :      1.145400409      -0.081606585       0.266745611
                        -----------------------------------------
Magnitude (a.u.)       :      1.178878685
Magnitude (Debye)      :      2.996471483

Rotational constants in cm-1:             0.356919             0.029641             0.028635
Rotational constants in MHz :         10700.156597           888.618057           858.460093

                             ****ORCA TERMINATED NORMALLY****
TOTAL RUN TIME: 0 days 0 hours 0 minutes 24 seconds 607 msec
