                         Program Version 6.0.0  -   RELEASE  -
|  1> ! pbe def2-sv(p) def2/J RI DEFGRID1 loosescf d4 GCP(DFT/SV(P)) printgap
|  2> %output
|  3>     printlevel normal
|  4> end
|  5> * xyz 0 1
|  6> C 1.2361550971 -1.6942913183 0.517405782
|  7> O 0.897956881 -0.9153102387 -0.637442939
|  8> C -0.0950362159 0.0199456964 -0.433491516
|  9> O 0.282716357 1.0267252448 0.4603616542
| 10> C 1.2948517197 1.8928157796 -0.0384989438
| 11> O -1.2308712833 -0.5970114993 0.0545557611
| 12> C -2.3925147984 0.2276411309 0.0612750917
| 13> H 0.4142918386 -2.3652419962 0.768185982
| 14> H 1.4497302398 -1.039046117 1.3635577559
| 15> H 2.1200819665 -2.2548194953 0.2290480391
| 16> H -0.2771951479 0.4630251284 -1.4376999879
| 17> H 1.5045031919 2.5867341916 0.7699464697
| 18> H 0.9306753216 2.4286442516 -0.9196578862
| 19> H 2.1911284116 1.326857525 -0.3010728666
| 20> H -2.6245675364 0.5590865016 -0.954640219
| 21> H -2.2428902456 1.0919340678 0.7102723939
| 22> H -3.1867710766 -0.4050618968 0.4456155362
| 23> *
| 24>
| 25>                          ****END OF INPUT****

CARTESIAN COORDINATES (ANGSTROEM)
---------------------------------
  C      1.236155   -1.694291    0.517406
  O      0.897957   -0.915310   -0.637443
  C     -0.095036    0.019946   -0.433492
  O      0.282716    1.026725    0.460362
  C      1.294852    1.892816   -0.038499
  O     -1.230871   -0.597011    0.054556
  C     -2.392515    0.227641    0.061275
  H      0.414292   -2.365242    0.768186
  H      1.449730   -1.039046    1.363558
  H      2.120082   -2.254819    0.229048
  H     -0.277195    0.463025   -1.437700
  H      1.504503    2.586734    0.769946
  H      0.930675    2.428644   -0.919658
  H      2.191128    1.326858   -0.301073
  H     -2.624568    0.559087   -0.954640
  H     -2.242890    1.091934    0.710272
  H     -3.186771   -0.405062    0.445616

 Total Charge           Charge          ....    0
 Multiplicity           Mult            ....    1
 Number of Electrons    NEL             ....   58
 Basis Dimension        Dim             ....  118

ORBITAL ENERGIES
----------------

  NO   OCC          E(Eh)            E(eV)
   0   2.0000     -18.761402      -510.5237
   1   2.0000     -18.760635      -510.5028
   2   2.0000     -18.758337      -510.4403
   3   2.0000     -10.019630      -272.6480
   4   2.0000      -9.929116      -270.1850
   5   2.0000      -9.928192      -270.1598
   6   2.0000      -9.918390      -269.8931
   7   2.0000      -1.001224       -27.2447
   8   2.0000      -0.916539       -24.9403
   9   2.0000      -0.911404       -24.8006
  10   2.0000      -0.665467       -18.1083
  11   2.0000      -0.622230       -16.9317
  12   2.0000      -0.613854       -16.7038
  13   2.0000      -0.525243       -14.2926
  14   2.0000      -0.471027       -12.8173
  15   2.0000      -0.466122       -12.6838
  16   2.0000      -0.461782       -12.5657
  17   2.0000      -0.402656       -10.9568
  18   2.0000      -0.395877       -10.7724
  19   2.0000      -0.381221       -10.3736
  20   2.0000      -0.377123       -10.2621
  21   2.0000      -0.370621       -10.0851
  22   2.0000      -0.350324        -9.5328
  23   2.0000      -0.306941        -8.3523
  24   2.0000      -0.285339        -7.7645
  25   2.0000      -0.268238        -7.2991
  26   2.0000      -0.230237        -6.2651
  27   2.0000      -0.227522        -6.1912
  28   2.0000      -0.216822        -5.9000
  29   0.0000       0.041872         1.1394
  30   0.0000       0.063831         1.7369
  31   0.0000       0.073914         2.0113
  32   0.0000       0.085829         2.3355
  33   0.0000       0.094953         2.5838

MULLIKEN ATOMIC CHARGES
-----------------------
   0 C :   -0.097003
   1 O :   -0.312141
   2 C :    0.271041
   3 O :   -0.319820
   4 C :   -0.108084
   5 O :   -0.311695
   6 C :   -0.098802
   7 H :    0.108139
   8 H :    0.097685
   9 H :    0.111013
  10 H :    0.031441
  11 H :    0.118184
  12 H :    0.090810
  13 H :    0.104834
  14 H :    0.088302
  15 H :    0.107778
  16 H :    0.118319
Sum of atomic charges:   -0.0000000

LOEWDIN ATOMIC CHARGES
----------------------
   0 C :   -0.209679
   1 O :   -0.154006
   2 C :    0.047269
   3 O :   -0.173439
   4 C :   -0.208025
   5 O :   -0.152745
   6 C :   -0.203407
   7 H :    0.109890
   8 H :    0.105527
   9 H :    0.114821
  10 H :    0.071502
  11 H :    0.118038
  12 H :    0.101714
  13 H :    0.105136
  14 H :    0.101754
  15 H :    0.107178
  16 H :    0.118471

  Mayer bond orders larger than 0.100000
B(  0-C ,  1-O ) :   0.9671 B(  0-C ,  7-H ) :   0.9506 B(  0-C ,  8-H ) :   0.9403
B(  0-C ,  9-H ) :   0.9643 B(  1-O ,  2-C ) :   1.1304 B(  2-C ,  3-O ) :   1.0489
B(  2-C ,  5-O ) :   1.0750 B(  2-C , 10-H ) :   0.8924 B(  3-O ,  4-C ) :   0.9860
B(  4-C , 11-H ) :   0.9643 B(  4-C , 12-H ) :   0.9453 B(  4-C , 13-H ) :   0.9437
B(  5-O ,  6-C ) :   0.9879 B(  6-C , 14-H ) :   0.9419 B(  6-C , 15-H ) :   0.9455
B(  6-C , 16-H ) :   0.9652

Dispersion correction           -0.011952566
FINAL SINGLE POINT ENERGY      -383.234574540219

DIPOLE MOMENT
-------------

Method             : SCF
Type of density    : Electron Density
Multiplicity       :   1
Irrep              :   0
Energy             :  -383.3148275433271692 Eh
Relativity type    :
Basis              : AO
                                X                 Y                 Z
Electronic contribution:     -0.289229193      -1.774628154      -0.593630080
Nuclear contribution   :      0.260992334       2.237003082       0.630091217
                        -----------------------------------------
Total Dipole Moment    :     -0.028236859       0.462374928       0.036461137
                        -----------------------------------------
Magnitude (a.u.)       :      0.464669031
Magnitude (Debye)      :      1.181094814

Rotational constants in cm-1:             0.101813             0.081768             0.051831
Rotational constants in MHz :          3052.271129          2451.335254          1553.855737

                             ****ORCA TERMINATED NORMALLY****
TOTAL RUN TIME: 0 days 0 hours 0 minutes 9 seconds 588 msec
