                         Program Version 6.0.0  -   RELEASE  -
|  1> ! pbe def2-sv(p) def2/J RI DEFGRID1 loosescf d4 GCP(DFT/SV(P)) printgap
|  2> %output
|  3>     printlevel normal
|  4> end
|  5> * xyz 0 1
|  6> C -2.420933056 -0.8687511787 1.0000362975
|  7> C -2.0510552697 -0.7520036402 -0.4736185413
|  8> C -1.42675934 0.6111669901 -0.7952591311
|  9> C -0.116224805 0.8003829128 -0.0759223775
| 10> O 0.1213537081 1.6925146411 0.7141184671
| 11> O 0.7710666925 -0.1260012225 -0.4069317235
| 12> C 2.0653552357 -0.0641446082 0.21340236
| 13> C 2.882268651 -1.2439274215 -0.2763200209
| 14> H -3.1410258806 -0.1015306789 1.2748728422
| 15> H -2.8566526032 -1.8425636331 1.2067479498
| 16> H -1.5407823466 -0.7439565508 1.6284075131
| 17> H -2.9462347165 -0.8757434107 -1.083821923
| 18> H -1.3425548999 -1.5367895154 -0.7411267431
| 19> H -2.094054867 1.4207083201 -0.4995800662
| 20> H -1.2298485524 0.6757290587 -1.8660948607
| 21> H 2.5300970626 0.8909846056 -0.05302713
| 22> H 1.93099822 -0.0837394327 1.3001544335
| 23> H 2.397118966 -2.1748501659 0.0015271402
| 24> H 2.9763005437 -1.2066537395 -1.3575018408
| 25> H 3.869801972 -1.2072495792 0.1714427541
| 26> *
| 27>
| 28>                          ****END OF INPUT****

CARTESIAN COORDINATES (ANGSTROEM)
---------------------------------
  C     -2.420933   -0.868751    1.000036
  C     -2.051055   -0.752004   -0.473619
  C     -1.426759    0.611167   -0.795259
  C     -0.116225    0.800383   -0.075922
  O      0.121354    1.692515    0.714118
  O      0.771067   -0.126001   -0.406932
  C      2.065355   -0.064145    0.213402
  C      2.882269   -1.243927   -0.276320
  H     -3.141026   -0.101531    1.274873
  H     -2.856653   -1.842564    1.206748
  H     -1.540782   -0.743957    1.628408
  H     -2.946235   -0.875743   -1.083822
  H     -1.342555   -1.536790   -0.741127
  H     -2.094055    1.420708   -0.499580
  H     -1.229849    0.675729   -1.866095
  H      2.530097    0.890985   -0.053027
  H      1.930998   -0.083739    1.300154
  H      2.397119   -2.174850    0.001527
  H      2.976301   -1.206654   -1.357502
  H      3.869802   -1.207250    0.171443

 Total Charge           Charge          ....    0
 Multiplicity           Mult            ....    1
 Number of Electrons    NEL             ....   64
 Basis Dimension        Dim             ....  136

ORBITAL ENERGIES
----------------

  NO   OCC          E(Eh)            E(eV)
   0   2.0000     -18.797629      -511.5095
   1   2.0000     -18.728711      -509.6341
   2   2.0000     -10.002985      -272.1951
   3   2.0000      -9.947561      -270.6869
   4   2.0000      -9.896105      -269.2867
   5   2.0000      -9.893432      -269.2140
   6   2.0000      -9.889975      -269.1199
   7   2.0000      -9.877789      -268.7883
   8   2.0000      -1.004820       -27.3425
   9   2.0000      -0.905269       -24.6336
  10   2.0000      -0.730795       -19.8859
  11   2.0000      -0.698596       -19.0098
  12   2.0000      -0.636542       -17.3212
  13   2.0000      -0.581677       -15.8282
  14   2.0000      -0.535758       -14.5787
  15   2.0000      -0.507569       -13.8117
  16   2.0000      -0.451126       -12.2758
  17   2.0000      -0.436516       -11.8782
  18   2.0000      -0.415282       -11.3004
  19   2.0000      -0.401750       -10.9322
  20   2.0000      -0.391487       -10.6529
  21   2.0000      -0.363921        -9.9028
  22   2.0000      -0.363120        -9.8810
  23   2.0000      -0.354334        -9.6419
  24   2.0000      -0.342044        -9.3075
  25   2.0000      -0.321985        -8.7617
  26   2.0000      -0.314065        -8.5461
  27   2.0000      -0.299485        -8.1494
  28   2.0000      -0.297204        -8.0873
  29   2.0000      -0.294354        -8.0098
  30   2.0000      -0.255803        -6.9607
  31   2.0000      -0.211362        -5.7515
  32   0.0000      -0.018597        -0.5061
  33   0.0000       0.033576         0.9137
  34   0.0000       0.052123         1.4183
  35   0.0000       0.072796         1.9809
  36   0.0000       0.078149         2.1265

MULLIKEN ATOMIC CHARGES
-----------------------
   0 C :   -0.286964
   1 C :   -0.214299
   2 C :   -0.101883
   3 C :    0.082028
   4 O :   -0.209079
   5 O :   -0.244397
   6 C :   -0.028753
   7 C :   -0.271576
   8 H :    0.103442
   9 H :    0.106118
  10 H :    0.117664
  11 H :    0.093449
  12 H :    0.102575
  13 H :    0.096899
  14 H :    0.106810
  15 H :    0.104534
  16 H :    0.104207
  17 H :    0.113979
  18 H :    0.114242
  19 H :    0.111003
Sum of atomic charges:    0.0000000

LOEWDIN ATOMIC CHARGES
----------------------
   0 C :   -0.342093
   1 C :   -0.230607
   2 C :   -0.242628
   3 C :    0.031247
   4 O :   -0.168758
   5 O :   -0.071281
   6 C :   -0.108087
   7 C :   -0.350791
   8 H :    0.120523
   9 H :    0.120726
  10 H :    0.120352
  11 H :    0.118444
  12 H :    0.119374
  13 H :    0.132081
  14 H :    0.137641
  15 H :    0.115902
  16 H :    0.115451
  17 H :    0.125877
  18 H :    0.126358
  19 H :    0.130269

  Mayer bond orders larger than 0.100000
B(  0-C ,  1-C ) :   1.1525 B(  0-C ,  8-H ) :   0.9536 B(  0-C ,  9-H ) :   0.9516
B(  0-C , 10-H ) :   0.9483 B(  1-C ,  2-C ) :   1.1088 B(  1-C , 11-H ) :   0.9268
B(  1-C , 12-H ) :   0.9235 B(  2-C ,  3-C ) :   1.0393 B(  2-C , 13-H ) :   0.9104
B(  2-C , 14-H ) :   0.8943 B(  3-C ,  4-O ) :   2.0583 B(  3-C ,  5-O ) :   1.1889
B(  5-O ,  6-C ) :   0.9150 B(  6-C ,  7-C ) :   1.1485 B(  6-C , 15-H ) :   0.9331
B(  6-C , 16-H ) :   0.9305 B(  7-C , 17-H ) :   0.9503 B(  7-C , 18-H ) :   0.9495
B(  7-C , 19-H ) :   0.9445

Dispersion correction           -0.015053732
FINAL SINGLE POINT ENERGY      -385.457574602761

DIPOLE MOMENT
-------------

Method             : SCF
Type of density    : Electron Density
Multiplicity       :   1
Irrep              :   0
Energy             :  -385.5324772657687618 Eh
Relativity type    :
Basis              : AO
                                X                 Y                 Z
Electronic contribution:      1.529487510       5.635966313      -0.374758058
Nuclear contribution   :     -1.344141429      -6.342846768      -0.012331919
                        -----------------------------------------
Total Dipole Moment    :      0.185346081      -0.706880454      -0.387089977
                        -----------------------------------------
Magnitude (a.u.)       :      0.826965415
Magnitude (Debye)      :      2.101979037

Rotational constants in cm-1:             0.106070             0.038971             0.033977
Rotational constants in MHz :          3179.885664          1168.311600          1018.595748

                             ****ORCA TERMINATED NORMALLY****
TOTAL RUN TIME: 0 days 0 hours 0 minutes 10 seconds 977 msec
