                         Program Version 6.0.0  -   RELEASE  -
|  1> ! pbe def2-sv(p) def2/J RI DEFGRID1 loosescf d4 GCP(DFT/SV(P)) printgap
|  2> %output
|  3>     printlevel normal
|  4> end
|  5> * xyz 0 1
|  6> C -2.7418264111 0.2297836561 -0.1310819101
|  7> C -1.318157949 0.4513037582 0.3631558613
|  8> C -0.3381086891 -0.4392774881 -0.40207823
|  9> N 1.0437773295 -0.1506272759 -0.0353044196
| 10> O 1.3961560088 1.0090023265 0.0211724424
| 11> O 1.7809544574 -1.0909852263 0.1870943174
| 12> H -3.430312908 0.8501850419 0.4347213064
| 13> H -2.8295109907 0.4900599375 -1.1823616589
| 14> H -3.0335375913 -0.8093814787 -0.0049077791
| 15> H -1.2602976377 0.2229316802 1.4285325631
| 16> H -1.0309674717 1.4945606227 0.2244319922
| 17> H -0.5129559762 -1.49981998 -0.2168919055
| 18> H -0.430358197 -0.2354560619 -1.4730244967
| 19> *
| 20>
| 21>                          ****END OF INPUT****

CARTESIAN COORDINATES (ANGSTROEM)
---------------------------------
  C     -2.741826    0.229784   -0.131082
  C     -1.318158    0.451304    0.363156
  C     -0.338109   -0.439277   -0.402078
  N      1.043777   -0.150627   -0.035304
  O      1.396156    1.009002    0.021172
  O      1.780954   -1.090985    0.187094
  H     -3.430313    0.850185    0.434721
  H     -2.829511    0.490060   -1.182362
  H     -3.033538   -0.809381   -0.004908
  H     -1.260298    0.222932    1.428533
  H     -1.030967    1.494561    0.224432
  H     -0.512956   -1.499820   -0.216892
  H     -0.430358   -0.235456   -1.473024

 Total Charge           Charge          ....    0
 Multiplicity           Mult            ....    1
 Number of Electrons    NEL             ....   48
 Basis Dimension        Dim             ....   98

ORBITAL ENERGIES
----------------

  NO   OCC          E(Eh)            E(eV)
   0   2.0000     -18.776152      -510.9251
   1   2.0000     -18.774280      -510.8741
   2   2.0000     -14.207425      -386.6037
   3   2.0000      -9.947220      -270.6776
   4   2.0000      -9.912689      -269.7380
   5   2.0000      -9.896714      -269.3033
   6   2.0000      -1.132090       -30.8057
   7   2.0000      -0.960547       -26.1378
   8   2.0000      -0.768582       -20.9142
   9   2.0000      -0.688448       -18.7336
  10   2.0000      -0.574610       -15.6359
  11   2.0000      -0.533065       -14.5054
  12   2.0000      -0.494330       -13.4514
  13   2.0000      -0.477578       -12.9956
  14   2.0000      -0.453825       -12.3492
  15   2.0000      -0.432561       -11.7706
  16   2.0000      -0.392028       -10.6676
  17   2.0000      -0.371186       -10.1005
  18   2.0000      -0.351095        -9.5538
  19   2.0000      -0.327899        -8.9226
  20   2.0000      -0.317355        -8.6357
  21   2.0000      -0.271278        -7.3819
  22   2.0000      -0.251739        -6.8502
  23   2.0000      -0.230085        -6.2609
  24   0.0000      -0.094050        -2.5592
  25   0.0000       0.025271         0.6877
  26   0.0000       0.057283         1.5587
  27   0.0000       0.061318         1.6686
  28   0.0000       0.082701         2.2504

MULLIKEN ATOMIC CHARGES
-----------------------
   0 C :   -0.283777
   1 C :   -0.219019
   2 C :   -0.059195
   3 N :    0.185104
   4 O :   -0.213354
   5 O :   -0.221116
   6 H :    0.119085
   7 H :    0.108944
   8 H :    0.108376
   9 H :    0.108988
  10 H :    0.122179
  11 H :    0.113651
  12 H :    0.130134
Sum of atomic charges:   -0.0000000

LOEWDIN ATOMIC CHARGES
----------------------
   0 C :   -0.338590
   1 C :   -0.243483
   2 C :   -0.184597
   3 N :    0.237622
   4 O :   -0.185292
   5 O :   -0.189505
   6 H :    0.128802
   7 H :    0.121608
   8 H :    0.121144
   9 H :    0.126304
  10 H :    0.130033
  11 H :    0.132794
  12 H :    0.143157

  Mayer bond orders larger than 0.100000
B(  0-C ,  1-C ) :   1.1487 B(  0-C ,  6-H ) :   0.9499 B(  0-C ,  7-H ) :   0.9539
B(  0-C ,  8-H ) :   0.9532 B(  1-C ,  2-C ) :   1.1160 B(  1-C ,  9-H ) :   0.9236
B(  1-C , 10-H ) :   0.9113 B(  2-C ,  3-N ) :   0.9035 B(  2-C , 11-H ) :   0.9175
B(  2-C , 12-H ) :   0.9074 B(  3-N ,  4-O ) :   1.5391 B(  3-N ,  5-O ) :   1.5503
B(  4-O ,  5-O ) :   0.3108

Dispersion correction           -0.008353580
FINAL SINGLE POINT ENERGY      -322.969382806421

DIPOLE MOMENT
-------------

Method             : SCF
Type of density    : Electron Density
Multiplicity       :   1
Irrep              :   0
Energy             :  -323.0200770760138766 Eh
Relativity type    :
Basis              : AO
                                X                 Y                 Z
Electronic contribution:     10.339738343      -0.613130473       0.455766727
Nuclear contribution   :    -11.700470165       0.479311278      -0.737790731
                        -----------------------------------------
Total Dipole Moment    :     -1.360731822      -0.133819195      -0.282024004
                        -----------------------------------------
Magnitude (a.u.)       :      1.396078868
Magnitude (Debye)      :      3.548550476

Rotational constants in cm-1:             0.312873             0.065945             0.058183
Rotational constants in MHz :          9379.705438          1976.994990          1744.283843

                             ****ORCA TERMINATED NORMALLY****
TOTAL RUN TIME: 0 days 0 hours 0 minutes 8 seconds 249 msec
