                         Program Version 6.0.0  -   RELEASE  -
|  1> ! pbe def2-sv(p) def2/J RI DEFGRID1 loosescf d4 GCP(DFT/SV(P)) printgap
|  2> %output
|  3>     printlevel normal
|  4> end
|  5> * xyz 0 1
|  6> C -2.8303247843 -1.1062265154 -0.1168616604
|  7> C -2.5178084868 0.3845037851 -0.0637993202
|  8> C -1.2195035918 0.6626304964 0.6930226772
|  9> C -0.0063267259 0.1815861352 -0.061697768
| 10> O 0.0931430067 0.1266418713 -1.2689472997
| 11> O 0.9672237224 -0.1714721264 0.7723250219
| 12> C 2.2220937005 -0.5994397057 0.2170189935
| 13> C 3.1159939087 0.5878569175 -0.1067921827
| 14> H -2.9205017209 -1.5153219271 0.8867191562
| 15> H -3.7631766137 -1.2791970655 -0.6465831801
| 16> H -2.0375718551 -1.6387249745 -0.6385371796
| 17> H -3.3347761722 0.9124640494 0.4285895869
| 18> H -2.4195745264 0.7707601007 -1.0798997625
| 19> H -1.220968832 0.1940704096 1.6770476342
| 20> H -1.0929287285 1.739288167 0.8294642473
| 21> H 2.6623108336 -1.2290528204 0.990628869
| 22> H 2.0222793116 -1.1873062181 -0.6841198374
| 23> H 4.0783530379 0.2286014266 -0.4563412453
| 24> H 2.6612497061 1.1943734973 -0.8869333197
| 25> H 3.2608060519 1.1999687653 0.7792901641
| 26> *
| 27>
| 28>                          ****END OF INPUT****

CARTESIAN COORDINATES (ANGSTROEM)
---------------------------------
  C     -2.830325   -1.106227   -0.116862
  C     -2.517808    0.384504   -0.063799
  C     -1.219504    0.662630    0.693023
  C     -0.006327    0.181586   -0.061698
  O      0.093143    0.126642   -1.268947
  O      0.967224   -0.171472    0.772325
  C      2.222094   -0.599440    0.217019
  C      3.115994    0.587857   -0.106792
  H     -2.920502   -1.515322    0.886719
  H     -3.763177   -1.279197   -0.646583
  H     -2.037572   -1.638725   -0.638537
  H     -3.334776    0.912464    0.428590
  H     -2.419575    0.770760   -1.079900
  H     -1.220969    0.194070    1.677048
  H     -1.092929    1.739288    0.829464
  H      2.662311   -1.229053    0.990629
  H      2.022279   -1.187306   -0.684120
  H      4.078353    0.228601   -0.456341
  H      2.661250    1.194373   -0.886933
  H      3.260806    1.199969    0.779290

 Total Charge           Charge          ....    0
 Multiplicity           Mult            ....    1
 Number of Electrons    NEL             ....   64
 Basis Dimension        Dim             ....  136

ORBITAL ENERGIES
----------------

  NO   OCC          E(Eh)            E(eV)
   0   2.0000     -18.796936      -511.4906
   1   2.0000     -18.733299      -509.7590
   2   2.0000     -10.005910      -272.2747
   3   2.0000      -9.946344      -270.6538
   4   2.0000      -9.897049      -269.3124
   5   2.0000      -9.887048      -269.0402
   6   2.0000      -9.886692      -269.0306
   7   2.0000      -9.873210      -268.6637
   8   2.0000      -1.003765       -27.3138
   9   2.0000      -0.910023       -24.7630
  10   2.0000      -0.725517       -19.7423
  11   2.0000      -0.696083       -18.9414
  12   2.0000      -0.636484       -17.3196
  13   2.0000      -0.589477       -16.0405
  14   2.0000      -0.530301       -14.4302
  15   2.0000      -0.491096       -13.3634
  16   2.0000      -0.452490       -12.3129
  17   2.0000      -0.434713       -11.8291
  18   2.0000      -0.422419       -11.4946
  19   2.0000      -0.397807       -10.8249
  20   2.0000      -0.389929       -10.6105
  21   2.0000      -0.372628       -10.1397
  22   2.0000      -0.363854        -9.9010
  23   2.0000      -0.349169        -9.5014
  24   2.0000      -0.336056        -9.1445
  25   2.0000      -0.328516        -8.9394
  26   2.0000      -0.302245        -8.2245
  27   2.0000      -0.297287        -8.0896
  28   2.0000      -0.294657        -8.0180
  29   2.0000      -0.287899        -7.8341
  30   2.0000      -0.256222        -6.9722
  31   2.0000      -0.219698        -5.9783
  32   0.0000      -0.020278        -0.5518
  33   0.0000       0.039903         1.0858
  34   0.0000       0.055362         1.5065
  35   0.0000       0.079248         2.1564
  36   0.0000       0.083719         2.2781

MULLIKEN ATOMIC CHARGES
-----------------------
   0 C :   -0.292469
   1 C :   -0.176205
   2 C :   -0.148642
   3 C :    0.100073
   4 O :   -0.210334
   5 O :   -0.236716
   6 C :   -0.011384
   7 C :   -0.305664
   8 H :    0.095705
   9 H :    0.105912
  10 H :    0.115949
  11 H :    0.085636
  12 H :    0.104839
  13 H :    0.098333
  14 H :    0.116506
  15 H :    0.100948
  16 H :    0.106443
  17 H :    0.111869
  18 H :    0.126956
  19 H :    0.112244
Sum of atomic charges:    0.0000000

LOEWDIN ATOMIC CHARGES
----------------------
   0 C :   -0.342797
   1 C :   -0.231030
   2 C :   -0.250052
   3 C :    0.039120
   4 O :   -0.170813
   5 O :   -0.068902
   6 C :   -0.113046
   7 C :   -0.356855
   8 H :    0.115213
   9 H :    0.121026
  10 H :    0.121487
  11 H :    0.117221
  12 H :    0.125193
  13 H :    0.130351
  14 H :    0.144386
  15 H :    0.116650
  16 H :    0.118636
  17 H :    0.130025
  18 H :    0.130280
  19 H :    0.123910

  Mayer bond orders larger than 0.100000
B(  0-C ,  1-C ) :   1.1546 B(  0-C ,  8-H ) :   0.9540 B(  0-C ,  9-H ) :   0.9530
B(  0-C , 10-H ) :   0.9517 B(  1-C ,  2-C ) :   1.1150 B(  1-C , 11-H ) :   0.9252
B(  1-C , 12-H ) :   0.9162 B(  2-C ,  3-C ) :   1.0182 B(  2-C , 13-H ) :   0.9095
B(  2-C , 14-H ) :   0.8890 B(  3-C ,  4-O ) :   2.0274 B(  3-C ,  5-O ) :   1.2181
B(  5-O ,  6-C ) :   0.9245 B(  6-C ,  7-C ) :   1.1725 B(  6-C , 15-H ) :   0.9375
B(  6-C , 16-H ) :   0.9148 B(  7-C , 17-H ) :   0.9445 B(  7-C , 18-H ) :   0.9459
B(  7-C , 19-H ) :   0.9492

Dispersion correction           -0.015156930
FINAL SINGLE POINT ENERGY      -385.459259416739

DIPOLE MOMENT
-------------

Method             : SCF
Type of density    : Electron Density
Multiplicity       :   1
Irrep              :   0
Energy             :  -385.5344071594139450 Eh
Relativity type    :
Basis              : AO
                                X                 Y                 Z
Electronic contribution:      2.246059176       0.586677787      -0.531945003
Nuclear contribution   :     -1.958648061      -0.573018291       1.117802903
                        -----------------------------------------
Total Dipole Moment    :      0.287411115       0.013659496       0.585857899
                        -----------------------------------------
Magnitude (a.u.)       :      0.652703002
Magnitude (Debye)      :      1.659039186

Rotational constants in cm-1:             0.171769             0.032263             0.031959
Rotational constants in MHz :          5149.498817           967.228992           958.093256

                             ****ORCA TERMINATED NORMALLY****
TOTAL RUN TIME: 0 days 0 hours 0 minutes 10 seconds 592 msec
