                         Program Version 6.0.0  -   RELEASE  -
|  1> ! pbe def2-sv(p) def2/J RI DEFGRID1 loosescf d4 GCP(DFT/SV(P)) printgap
|  2> %output
|  3>     printlevel normal
|  4> end
|  5> * xyz 0 1
|  6> C -3.5363431402 -0.6501894981 0.4554011465
|  7> C -2.1789083962 0.034564448 0.5491274402
|  8> C -1.2176983691 -0.4893001914 -0.5286324334
|  9> C 0.0970570211 0.2327538214 -0.4097397273
| 10> O 0.3793363759 1.2586435708 -0.9940586533
| 11> O 0.9013252507 -0.3644568576 0.4600491584
| 12> C 2.1860055291 0.2235981861 0.7249873009
| 13> C 3.2282321531 -0.2677319481 -0.2678963731
| 14> H -3.4310358847 -1.7234288546 0.5904867246
| 15> H -4.2016719938 -0.2680376014 1.2246747946
| 16> H -3.9894679211 -0.4665040505 -0.515365081
| 17> H -1.7410054265 -0.1456987306 1.5327123191
| 18> H -2.2979976543 1.1129134062 0.4240016323
| 19> H -1.6342403922 -0.298472734 -1.5172322116
| 20> H -1.0535723378 -1.5565372369 -0.386553189
| 21> H 2.0885062004 1.3123153376 0.6740417975
| 22> H 2.4275102263 -0.0892060076 1.74129831
| 23> H 2.9694896753 0.0607156607 -1.2720910783
| 24> H 4.1980950479 0.1401873842 -0.0026661849
| 25> H 3.2778351527 -1.3530847062 -0.2519073514
| 26> *
| 27>
| 28>                          ****END OF INPUT****

CARTESIAN COORDINATES (ANGSTROEM)
---------------------------------
  C     -3.536343   -0.650189    0.455401
  C     -2.178908    0.034564    0.549127
  C     -1.217698   -0.489300   -0.528632
  C      0.097057    0.232754   -0.409740
  O      0.379336    1.258644   -0.994059
  O      0.901325   -0.364457    0.460049
  C      2.186006    0.223598    0.724987
  C      3.228232   -0.267732   -0.267896
  H     -3.431036   -1.723429    0.590487
  H     -4.201672   -0.268038    1.224675
  H     -3.989468   -0.466504   -0.515365
  H     -1.741005   -0.145699    1.532712
  H     -2.297998    1.112913    0.424002
  H     -1.634240   -0.298473   -1.517232
  H     -1.053572   -1.556537   -0.386553
  H      2.088506    1.312315    0.674042
  H      2.427510   -0.089206    1.741298
  H      2.969490    0.060716   -1.272091
  H      4.198095    0.140187   -0.002666
  H      3.277835   -1.353085   -0.251907

 Total Charge           Charge          ....    0
 Multiplicity           Mult            ....    1
 Number of Electrons    NEL             ....   64
 Basis Dimension        Dim             ....  136

ORBITAL ENERGIES
----------------

  NO   OCC          E(Eh)            E(eV)
   0   2.0000     -18.796108      -511.4681
   1   2.0000     -18.729098      -509.6447
   2   2.0000     -10.002906      -272.1929
   3   2.0000      -9.945384      -270.6277
   4   2.0000      -9.895729      -269.2765
   5   2.0000      -9.895557      -269.2718
   6   2.0000      -9.885914      -269.0094
   7   2.0000      -9.880457      -268.8609
   8   2.0000      -1.002609       -27.2824
   9   2.0000      -0.906220       -24.6595
  10   2.0000      -0.729433       -19.8489
  11   2.0000      -0.696137       -18.9429
  12   2.0000      -0.639295       -17.3961
  13   2.0000      -0.587635       -15.9904
  14   2.0000      -0.534283       -14.5386
  15   2.0000      -0.496137       -13.5006
  16   2.0000      -0.452017       -12.3000
  17   2.0000      -0.432039       -11.7564
  18   2.0000      -0.417829       -11.3697
  19   2.0000      -0.405449       -11.0328
  20   2.0000      -0.388596       -10.5742
  21   2.0000      -0.374722       -10.1967
  22   2.0000      -0.360164        -9.8006
  23   2.0000      -0.346075        -9.4172
  24   2.0000      -0.341818        -9.3013
  25   2.0000      -0.325931        -8.8690
  26   2.0000      -0.315615        -8.5883
  27   2.0000      -0.301514        -8.2046
  28   2.0000      -0.298498        -8.1225
  29   2.0000      -0.287053        -7.8111
  30   2.0000      -0.253310        -6.8929
  31   2.0000      -0.213951        -5.8219
  32   0.0000      -0.017650        -0.4803
  33   0.0000       0.041130         1.1192
  34   0.0000       0.052019         1.4155
  35   0.0000       0.077768         2.1162
  36   0.0000       0.078870         2.1462

MULLIKEN ATOMIC CHARGES
-----------------------
   0 C :   -0.241496
   1 C :   -0.242664
   2 C :   -0.113602
   3 C :    0.113677
   4 O :   -0.214525
   5 O :   -0.243135
   6 C :   -0.010405
   7 C :   -0.303652
   8 H :    0.098846
   9 H :    0.107141
  10 H :    0.101106
  11 H :    0.098175
  12 H :    0.103911
  13 H :    0.098106
  14 H :    0.092777
  15 H :    0.106140
  16 H :    0.099661
  17 H :    0.126508
  18 H :    0.111268
  19 H :    0.112163
Sum of atomic charges:   -0.0000000

LOEWDIN ATOMIC CHARGES
----------------------
   0 C :   -0.338970
   1 C :   -0.224934
   2 C :   -0.241880
   3 C :    0.037365
   4 O :   -0.175000
   5 O :   -0.069229
   6 C :   -0.113205
   7 C :   -0.355944
   8 H :    0.118229
   9 H :    0.121897
  10 H :    0.119285
  11 H :    0.118848
  12 H :    0.122285
  13 H :    0.133293
  14 H :    0.129157
  15 H :    0.118729
  16 H :    0.116067
  17 H :    0.130476
  18 H :    0.129705
  19 H :    0.123828

  Mayer bond orders larger than 0.100000
B(  0-C ,  1-C ) :   1.1579 B(  0-C ,  8-H ) :   0.9532 B(  0-C ,  9-H ) :   0.9516
B(  0-C , 10-H ) :   0.9532 B(  1-C ,  2-C ) :   1.1286 B(  1-C , 11-H ) :   0.9269
B(  1-C , 12-H ) :   0.9265 B(  2-C ,  3-C ) :   1.0259 B(  2-C , 13-H ) :   0.9030
B(  2-C , 14-H ) :   0.9003 B(  3-C ,  4-O ) :   2.0411 B(  3-C ,  5-O ) :   1.2052
B(  5-O ,  6-C ) :   0.9223 B(  6-C ,  7-C ) :   1.1740 B(  6-C , 15-H ) :   0.9127
B(  6-C , 16-H ) :   0.9371 B(  7-C , 17-H ) :   0.9467 B(  7-C , 18-H ) :   0.9446
B(  7-C , 19-H ) :   0.9491

Dispersion correction           -0.014717955
FINAL SINGLE POINT ENERGY      -385.457649325075

DIPOLE MOMENT
-------------

Method             : SCF
Type of density    : Electron Density
Multiplicity       :   1
Irrep              :   0
Energy             :  -385.5325951968758886 Eh
Relativity type    :
Basis              : AO
                                X                 Y                 Z
Electronic contribution:      3.254674886       2.535980819      -1.606237675
Nuclear contribution   :     -3.159101716      -3.059084931       2.094888909
                        -----------------------------------------
Total Dipole Moment    :      0.095573170      -0.523104112       0.488651234
                        -----------------------------------------
Magnitude (a.u.)       :      0.722185690
Magnitude (Debye)      :      1.835650142

Rotational constants in cm-1:             0.179231             0.030001             0.028169
Rotational constants in MHz :          5373.197907           899.414652           844.476691

                             ****ORCA TERMINATED NORMALLY****
TOTAL RUN TIME: 0 days 0 hours 0 minutes 10 seconds 617 msec
