                         Program Version 6.0.0  -   RELEASE  -
|  1> ! r2scan-3c def2/J RI DEFGRID2 scfconv6 printgap
|  2> %output
|  3>     printlevel normal
|  4> end
|  5> * xyz 0 1
|  6> C 2.3920831165 0.6160341211 0.6126824695
|  7> C 1.1337992294 -0.1344558063 0.1734972326
|  8> C 1.2995770474 -0.601620849 -1.2728391898
|  9> N 0.0043270657 0.7817926218 0.3146007193
| 10> C -1.3677392935 0.2766668773 0.2738475134
| 11> C -1.6146641305 -1.0118865869 1.071045532
| 12> C -1.8717545155 0.1220834873 -1.1637238378
| 13> H 2.3153209623 0.9245182616 1.6534870598
| 14> H 3.2664834934 -0.0205142704 0.5082719918
| 15> H 2.5237575699 1.5012752987 -0.0035006238
| 16> H 1.0262110905 -1.0251124931 0.8201859016
| 17> H 1.2257309295 0.2501050699 -1.942342564
| 18> H 0.5417306352 -1.3291982083 -1.5447612382
| 19> H 2.2737827629 -1.0674720994 -1.3981701579
| 20> H 0.1297014288 1.2852484067 1.1854507035
| 21> H -1.9656845663 1.0735111195 0.7346335568
| 22> H -1.1253874226 -1.8607317049 0.5989663779
| 23> H -1.2410270347 -0.913015942 2.0888616982
| 24> H -2.681544325 -1.2133646225 1.1132021995
| 25> H -1.5541647833 0.9747727701 -1.7558811862
| 26> H -2.9580068883 0.0776048721 -1.1647287779
| 27> H -1.4950402488 -0.7849453104 -1.6251702679
| 28> *
| 29>
| 30>                          ****END OF INPUT****

CARTESIAN COORDINATES (ANGSTROEM)
---------------------------------
  C      2.392083    0.616034    0.612682
  C      1.133799   -0.134456    0.173497
  C      1.299577   -0.601621   -1.272839
  N      0.004327    0.781793    0.314601
  C     -1.367739    0.276667    0.273848
  C     -1.614664   -1.011887    1.071046
  C     -1.871755    0.122083   -1.163724
  H      2.315321    0.924518    1.653487
  H      3.266483   -0.020514    0.508272
  H      2.523758    1.501275   -0.003501
  H      1.026211   -1.025112    0.820186
  H      1.225731    0.250105   -1.942343
  H      0.541731   -1.329198   -1.544761
  H      2.273783   -1.067472   -1.398170
  H      0.129701    1.285248    1.185451
  H     -1.965685    1.073511    0.734634
  H     -1.125387   -1.860732    0.598966
  H     -1.241027   -0.913016    2.088862
  H     -2.681544   -1.213365    1.113202
  H     -1.554165    0.974773   -1.755881
  H     -2.958007    0.077605   -1.164729
  H     -1.495040   -0.784945   -1.625170

 Total Charge           Charge          ....    0
 Multiplicity           Mult            ....    1
 Number of Electrons    NEL             ....   58
 Basis Dimension        Dim             ....  213

ORBITAL ENERGIES
----------------

  NO   OCC          E(Eh)            E(eV)
   0   2.0000     -14.132787      -384.5727
   1   2.0000     -10.056301      -273.6459
   2   2.0000     -10.054784      -273.6046
   3   2.0000     -10.015309      -272.5304
   4   2.0000     -10.014318      -272.5034
   5   2.0000     -10.009261      -272.3658
   6   2.0000     -10.007741      -272.3245
   7   2.0000      -0.867966       -23.6186
   8   2.0000      -0.749574       -20.3969
   9   2.0000      -0.697759       -18.9870
  10   2.0000      -0.651198       -17.7200
  11   2.0000      -0.645622       -17.5683
  12   2.0000      -0.562268       -15.3001
  13   2.0000      -0.512613       -13.9489
  14   2.0000      -0.458766       -12.4836
  15   2.0000      -0.441444       -12.0123
  16   2.0000      -0.413370       -11.2484
  17   2.0000      -0.392037       -10.6679
  18   2.0000      -0.376832       -10.2541
  19   2.0000      -0.365036        -9.9331
  20   2.0000      -0.354919        -9.6578
  21   2.0000      -0.353287        -9.6134
  22   2.0000      -0.341979        -9.3057
  23   2.0000      -0.323080        -8.7915
  24   2.0000      -0.314275        -8.5519
  25   2.0000      -0.302054        -8.2193
  26   2.0000      -0.292867        -7.9693
  27   2.0000      -0.285385        -7.7657
  28   2.0000      -0.185766        -5.0549
  29   0.0000       0.066658         1.8139
  30   0.0000       0.102253         2.7824
  31   0.0000       0.114752         3.1225
  32   0.0000       0.123890         3.3712
  33   0.0000       0.130379         3.5478

MULLIKEN ATOMIC CHARGES
-----------------------
   0 C :   -0.495887
   1 C :   -0.021493
   2 C :   -0.473061
   3 N :   -0.291444
   4 C :   -0.072573
   5 C :   -0.459426
   6 C :   -0.467982
   7 H :    0.135013
   8 H :    0.145495
   9 H :    0.162858
  10 H :    0.138105
  11 H :    0.169866
  12 H :    0.137874
  13 H :    0.139840
  14 H :    0.223249
  15 H :    0.143272
  16 H :    0.152008
  17 H :    0.146279
  18 H :    0.146825
  19 H :    0.162127
  20 H :    0.141220
  21 H :    0.137836
Sum of atomic charges:   -0.0000000

LOEWDIN ATOMIC CHARGES
----------------------
   0 C :   -0.385634
   1 C :   -0.015368
   2 C :   -0.390733
   3 N :   -0.838636
   4 C :   -0.020844
   5 C :   -0.406070
   6 C :   -0.393530
   7 H :    0.150537
   8 H :    0.154905
   9 H :    0.162068
  10 H :    0.156822
  11 H :    0.163573
  12 H :    0.150414
  13 H :    0.153193
  14 H :    0.250913
  15 H :    0.178283
  16 H :    0.153755
  17 H :    0.154201
  18 H :    0.155883
  19 H :    0.163795
  20 H :    0.151898
  21 H :    0.150574

  Mayer bond orders larger than 0.100000
B(  0-C ,  1-C ) :   0.9309 B(  0-C ,  7-H ) :   0.9721 B(  0-C ,  8-H ) :   0.9769
B(  0-C ,  9-H ) :   0.9816 B(  1-C ,  2-C ) :   0.8833 B(  1-C ,  3-N ) :   0.8927
B(  1-C , 10-H ) :   0.9347 B(  2-C , 11-H ) :   0.9858 B(  2-C , 12-H ) :   0.9664
B(  2-C , 13-H ) :   0.9762 B(  3-N ,  4-C ) :   0.9320 B(  3-N , 14-H ) :   0.9147
B(  4-C ,  5-C ) :   0.8800 B(  4-C ,  6-C ) :   0.9576 B(  4-C , 15-H ) :   0.9718
B(  5-C , 16-H ) :   0.9740 B(  5-C , 17-H ) :   0.9730 B(  5-C , 18-H ) :   0.9670
B(  6-C , 19-H ) :   0.9742 B(  6-C , 20-H ) :   0.9713 B(  6-C , 21-H ) :   0.9701

Dispersion correction           -0.006186329
FINAL SINGLE POINT ENERGY      -292.314636872898

DIPOLE MOMENT
-------------

Method             : SCF
Type of density    : Electron Density
Multiplicity       :   1
Irrep              :   0
Energy             :  -292.3230064659783238 Eh
Relativity type    :
Basis              : AO
                                X                 Y                 Z
Electronic contribution:     -0.298804450       1.849492004       1.014829013
Nuclear contribution   :      0.264457511      -1.991498350      -0.684542221
                        -----------------------------------------
Total Dipole Moment    :     -0.034346939      -0.142006346       0.330286792
                        -----------------------------------------
Magnitude (a.u.)       :      0.361157694
Magnitude (Debye)      :      0.917989904

Rotational constants in cm-1:             0.130478             0.054984             0.048802
Rotational constants in MHz :          3911.629194          1648.381216          1463.054178

                             ****ORCA TERMINATED NORMALLY****
TOTAL RUN TIME: 0 days 0 hours 0 minutes 25 seconds 227 msec
