                         Program Version 6.0.0  -   RELEASE  -
|  1> ! r2scan-3c def2/J RI DEFGRID2 scfconv6 printgap
|  2> %output
|  3>     printlevel normal
|  4> end
|  5> %cpcm
|  6>     smd true
|  7>     smdsolvent "water"
|  8> end
|  9> * xyz 0 1
| 10> C 2.3920831165 0.6160341211 0.6126824695
| 11> C 1.1337992294 -0.1344558063 0.1734972326
| 12> C 1.2995770474 -0.601620849 -1.2728391898
| 13> N 0.0043270657 0.7817926218 0.3146007193
| 14> C -1.3677392935 0.2766668773 0.2738475134
| 15> C -1.6146641305 -1.0118865869 1.071045532
| 16> C -1.8717545155 0.1220834873 -1.1637238378
| 17> H 2.3153209623 0.9245182616 1.6534870598
| 18> H 3.2664834934 -0.0205142704 0.5082719918
| 19> H 2.5237575699 1.5012752987 -0.0035006238
| 20> H 1.0262110905 -1.0251124931 0.8201859016
| 21> H 1.2257309295 0.2501050699 -1.942342564
| 22> H 0.5417306352 -1.3291982083 -1.5447612382
| 23> H 2.2737827629 -1.0674720994 -1.3981701579
| 24> H 0.1297014288 1.2852484067 1.1854507035
| 25> H -1.9656845663 1.0735111195 0.7346335568
| 26> H -1.1253874226 -1.8607317049 0.5989663779
| 27> H -1.2410270347 -0.913015942 2.0888616982
| 28> H -2.681544325 -1.2133646225 1.1132021995
| 29> H -1.5541647833 0.9747727701 -1.7558811862
| 30> H -2.9580068883 0.0776048721 -1.1647287779
| 31> H -1.4950402488 -0.7849453104 -1.6251702679
| 32> *
| 33>
| 34>                          ****END OF INPUT****

CARTESIAN COORDINATES (ANGSTROEM)
---------------------------------
  C      2.392083    0.616034    0.612682
  C      1.133799   -0.134456    0.173497
  C      1.299577   -0.601621   -1.272839
  N      0.004327    0.781793    0.314601
  C     -1.367739    0.276667    0.273848
  C     -1.614664   -1.011887    1.071046
  C     -1.871755    0.122083   -1.163724
  H      2.315321    0.924518    1.653487
  H      3.266483   -0.020514    0.508272
  H      2.523758    1.501275   -0.003501
  H      1.026211   -1.025112    0.820186
  H      1.225731    0.250105   -1.942343
  H      0.541731   -1.329198   -1.544761
  H      2.273783   -1.067472   -1.398170
  H      0.129701    1.285248    1.185451
  H     -1.965685    1.073511    0.734634
  H     -1.125387   -1.860732    0.598966
  H     -1.241027   -0.913016    2.088862
  H     -2.681544   -1.213365    1.113202
  H     -1.554165    0.974773   -1.755881
  H     -2.958007    0.077605   -1.164729
  H     -1.495040   -0.784945   -1.625170

 Total Charge           Charge          ....    0
 Multiplicity           Mult            ....    1
 Number of Electrons    NEL             ....   58
 Basis Dimension        Dim             ....  213

ORBITAL ENERGIES
----------------

  NO   OCC          E(Eh)            E(eV)
   0   2.0000     -14.127381      -384.4256
   1   2.0000     -10.049901      -273.4717
   2   2.0000     -10.049156      -273.4514
   3   2.0000     -10.007344      -272.3137
   4   2.0000     -10.005313      -272.2584
   5   2.0000     -10.003441      -272.2075
   6   2.0000     -10.002455      -272.1806
   7   2.0000      -0.862583       -23.4721
   8   2.0000      -0.743339       -20.2273
   9   2.0000      -0.691642       -18.8205
  10   2.0000      -0.644846       -17.5472
  11   2.0000      -0.639570       -17.4036
  12   2.0000      -0.556266       -15.1368
  13   2.0000      -0.506551       -13.7840
  14   2.0000      -0.451935       -12.2978
  15   2.0000      -0.435631       -11.8541
  16   2.0000      -0.407291       -11.0829
  17   2.0000      -0.385094       -10.4789
  18   2.0000      -0.369928       -10.0662
  19   2.0000      -0.358534        -9.7562
  20   2.0000      -0.348529        -9.4840
  21   2.0000      -0.346997        -9.4423
  22   2.0000      -0.335795        -9.1375
  23   2.0000      -0.316873        -8.6226
  24   2.0000      -0.308364        -8.3910
  25   2.0000      -0.296040        -8.0557
  26   2.0000      -0.286175        -7.7872
  27   2.0000      -0.278115        -7.5679
  28   2.0000      -0.184850        -5.0300
  29   0.0000       0.078133         2.1261
  30   0.0000       0.111463         3.0331
  31   0.0000       0.121908         3.3173
  32   0.0000       0.130385         3.5480
  33   0.0000       0.135432         3.6853

MULLIKEN ATOMIC CHARGES
-----------------------
   0 C :   -0.530121
   1 C :   -0.010612
   2 C :   -0.518673
   3 N :   -0.357040
   4 C :   -0.046091
   5 C :   -0.509571
   6 C :   -0.518981
   7 H :    0.156032
   8 H :    0.160997
   9 H :    0.161328
  10 H :    0.145124
  11 H :    0.166765
  12 H :    0.159411
  13 H :    0.155810
  14 H :    0.271113
  15 H :    0.159182
  16 H :    0.164429
  17 H :    0.158883
  18 H :    0.159047
  19 H :    0.158159
  20 H :    0.156668
  21 H :    0.158142
Sum of atomic charges:   -0.0000000

LOEWDIN ATOMIC CHARGES
----------------------
   0 C :   -0.393128
   1 C :   -0.014674
   2 C :   -0.399858
   3 N :   -0.855826
   4 C :   -0.019731
   5 C :   -0.411853
   6 C :   -0.403489
   7 H :    0.156973
   8 H :    0.159216
   9 H :    0.159906
  10 H :    0.160842
  11 H :    0.160277
  12 H :    0.155836
  13 H :    0.157437
  14 H :    0.260331
  15 H :    0.183142
  16 H :    0.156810
  17 H :    0.157726
  18 H :    0.159035
  19 H :    0.159607
  20 H :    0.156148
  21 H :    0.155272

  Mayer bond orders larger than 0.100000
B(  0-C ,  1-C ) :   0.9299 B(  0-C ,  7-H ) :   0.9686 B(  0-C ,  8-H ) :   0.9739
B(  0-C ,  9-H ) :   0.9787 B(  1-C ,  2-C ) :   0.8707 B(  1-C ,  3-N ) :   0.9051
B(  1-C , 10-H ) :   0.9389 B(  2-C , 11-H ) :   0.9840 B(  2-C , 12-H ) :   0.9657
B(  2-C , 13-H ) :   0.9733 B(  3-N ,  4-C ) :   0.9392 B(  3-N , 14-H ) :   0.8992
B(  4-C ,  5-C ) :   0.8789 B(  4-C ,  6-C ) :   0.9308 B(  4-C , 15-H ) :   0.9716
B(  5-C , 16-H ) :   0.9722 B(  5-C , 17-H ) :   0.9709 B(  5-C , 18-H ) :   0.9648
B(  6-C , 19-H ) :   0.9748 B(  6-C , 20-H ) :   0.9685 B(  6-C , 21-H ) :   0.9706

Dispersion correction           -0.006186329
FINAL SINGLE POINT ENERGY      -292.317334863263

DIPOLE MOMENT
-------------

Method             : SCF
Type of density    : Electron Density
Multiplicity       :   1
Irrep              :   0
Energy             :  -292.3257044563436011 Eh
Relativity type    :
Basis              : AO
                                X                 Y                 Z
Electronic contribution:     -0.323634220       1.709517994       1.209595294
Nuclear contribution   :      0.264457511      -1.991498350      -0.684542221
                        -----------------------------------------
Total Dipole Moment    :     -0.059176709      -0.281980356       0.525053073
                        -----------------------------------------
Magnitude (a.u.)       :      0.598911958
Magnitude (Debye)      :      1.522313217

Rotational constants in cm-1:             0.130478             0.054984             0.048802
Rotational constants in MHz :          3911.629194          1648.381216          1463.054178

                             ****ORCA TERMINATED NORMALLY****
TOTAL RUN TIME: 0 days 0 hours 0 minutes 33 seconds 302 msec
