                         Program Version 6.0.0  -   RELEASE  -
|  1> ! r2scan-3c def2/J RI DEFGRID2 scfconv6 printgap
|  2> %output
|  3>     printlevel normal
|  4> end
|  5> * xyz 0 1
|  6> C -1.9883491147 0.6401320646 0.5768510182
|  7> C -1.4902738991 -0.574645111 -0.1965183415
|  8> C -0.216534539 -0.2598628874 -0.9878165043
|  9> N 0.8881177028 -0.0169410204 -0.0670386995
| 10> O 1.4205920686 1.0745661489 -0.0827351846
| 11> O 1.2162076534 -0.9166662347 0.6789849875
| 12> H -2.1943997817 1.4677513583 -0.0973341156
| 13> H -2.9026498971 0.3950795774 1.1094439832
| 14> H -1.2504013018 0.9693131115 1.3065337653
| 15> H -2.2541887929 -0.9013811293 -0.9007909636
| 16> H -1.2806873427 -1.3959785452 0.4908655668
| 17> H 0.0542859681 -1.1221117612 -1.6001341936
| 18> H -0.3365107342 0.6325494785 -1.6026313816
| 19> *
| 20>
| 21>                          ****END OF INPUT****

CARTESIAN COORDINATES (ANGSTROEM)
---------------------------------
  C     -1.988349    0.640132    0.576851
  C     -1.490274   -0.574645   -0.196518
  C     -0.216535   -0.259863   -0.987817
  N      0.888118   -0.016941   -0.067039
  O      1.420592    1.074566   -0.082735
  O      1.216208   -0.916666    0.678985
  H     -2.194400    1.467751   -0.097334
  H     -2.902650    0.395080    1.109444
  H     -1.250401    0.969313    1.306534
  H     -2.254189   -0.901381   -0.900791
  H     -1.280687   -1.395979    0.490866
  H      0.054286   -1.122112   -1.600134
  H     -0.336511    0.632549   -1.602631

 Total Charge           Charge          ....    0
 Multiplicity           Mult            ....    1
 Number of Electrons    NEL             ....   48
 Basis Dimension        Dim             ....  164

ORBITAL ENERGIES
----------------

  NO   OCC          E(Eh)            E(eV)
   0   2.0000     -18.984305      -516.5892
   1   2.0000     -18.983600      -516.5700
   2   2.0000     -14.390269      -391.5791
   3   2.0000     -10.097025      -274.7540
   4   2.0000     -10.059308      -273.7277
   5   2.0000     -10.035806      -273.0882
   6   2.0000      -1.206167       -32.8215
   7   2.0000      -1.027032       -27.9470
   8   2.0000      -0.817683       -22.2503
   9   2.0000      -0.726916       -19.7804
  10   2.0000      -0.622795       -16.9471
  11   2.0000      -0.562049       -15.2941
  12   2.0000      -0.524663       -14.2768
  13   2.0000      -0.505786       -13.7631
  14   2.0000      -0.486017       -13.2252
  15   2.0000      -0.440356       -11.9827
  16   2.0000      -0.421118       -11.4592
  17   2.0000      -0.399518       -10.8714
  18   2.0000      -0.346764        -9.4359
  19   2.0000      -0.339589        -9.2407
  20   2.0000      -0.333715        -9.0809
  21   2.0000      -0.292213        -7.9515
  22   2.0000      -0.275762        -7.5039
  23   2.0000      -0.256077        -6.9682
  24   0.0000      -0.101070        -2.7503
  25   0.0000       0.076317         2.0767
  26   0.0000       0.089637         2.4391
  27   0.0000       0.107734         2.9316
  28   0.0000       0.112412         3.0589

MULLIKEN ATOMIC CHARGES
-----------------------
   0 C :   -0.474701
   1 C :   -0.231241
   2 C :   -0.274600
   3 N :    0.214662
   4 O :   -0.190083
   5 O :   -0.190320
   6 H :    0.146712
   7 H :    0.154179
   8 H :    0.163510
   9 H :    0.150140
  10 H :    0.168913
  11 H :    0.175150
  12 H :    0.187678
Sum of atomic charges:    0.0000000

LOEWDIN ATOMIC CHARGES
----------------------
   0 C :   -0.411713
   1 C :   -0.264986
   2 C :    0.024184
   3 N :   -0.548084
   4 O :   -0.001641
   5 O :   -0.008884
   6 H :    0.154403
   7 H :    0.156222
   8 H :    0.160477
   9 H :    0.160686
  10 H :    0.175058
  11 H :    0.204162
  12 H :    0.200116

  Mayer bond orders larger than 0.100000
B(  0-C ,  1-C ) :   0.9173 B(  0-C ,  6-H ) :   0.9738 B(  0-C ,  7-H ) :   0.9670
B(  0-C ,  8-H ) :   0.9760 B(  1-C ,  2-C ) :   0.9171 B(  1-C ,  9-H ) :   0.9586
B(  1-C , 10-H ) :   0.9602 B(  2-C ,  3-N ) :   0.8576 B(  2-C , 11-H ) :   0.9320
B(  2-C , 12-H ) :   0.9720 B(  3-N ,  4-O ) :   1.8461 B(  3-N ,  5-O ) :   1.8625
B(  4-O ,  5-O ) :   0.2764

Dispersion correction           -0.002953743
FINAL SINGLE POINT ENERGY      -323.580808092251

DIPOLE MOMENT
-------------

Method             : SCF
Type of density    : Electron Density
Multiplicity       :   1
Irrep              :   0
Energy             :  -323.5904459447065165 Eh
Relativity type    :
Basis              : AO
                                X                 Y                 Z
Electronic contribution:      8.262275973      -0.303666308       0.441150279
Nuclear contribution   :     -9.492079349       0.044676955      -1.205558801
                        -----------------------------------------
Total Dipole Moment    :     -1.229803376      -0.258989353      -0.764408522
                        -----------------------------------------
Magnitude (a.u.)       :      1.470990216
Magnitude (Debye)      :      3.738959990

Rotational constants in cm-1:             0.204874             0.085802             0.079184
Rotational constants in MHz :          6141.960813          2572.289124          2373.872339

                             ****ORCA TERMINATED NORMALLY****
TOTAL RUN TIME: 0 days 0 hours 0 minutes 22 seconds 373 msec
