                         Program Version 6.0.0  -   RELEASE  -
|  1> ! r2scan-3c def2/J RI DEFGRID2 scfconv6 printgap
|  2> %output
|  3>     printlevel normal
|  4> end
|  5> %cpcm
|  6>     smd true
|  7>     smdsolvent "water"
|  8> end
|  9> * xyz 0 1
| 10> C -1.9883491147 0.6401320646 0.5768510182
| 11> C -1.4902738991 -0.574645111 -0.1965183415
| 12> C -0.216534539 -0.2598628874 -0.9878165043
| 13> N 0.8881177028 -0.0169410204 -0.0670386995
| 14> O 1.4205920686 1.0745661489 -0.0827351846
| 15> O 1.2162076534 -0.9166662347 0.6789849875
| 16> H -2.1943997817 1.4677513583 -0.0973341156
| 17> H -2.9026498971 0.3950795774 1.1094439832
| 18> H -1.2504013018 0.9693131115 1.3065337653
| 19> H -2.2541887929 -0.9013811293 -0.9007909636
| 20> H -1.2806873427 -1.3959785452 0.4908655668
| 21> H 0.0542859681 -1.1221117612 -1.6001341936
| 22> H -0.3365107342 0.6325494785 -1.6026313816
| 23> *
| 24>
| 25>                          ****END OF INPUT****

CARTESIAN COORDINATES (ANGSTROEM)
---------------------------------
  C     -1.988349    0.640132    0.576851
  C     -1.490274   -0.574645   -0.196518
  C     -0.216535   -0.259863   -0.987817
  N      0.888118   -0.016941   -0.067039
  O      1.420592    1.074566   -0.082735
  O      1.216208   -0.916666    0.678985
  H     -2.194400    1.467751   -0.097334
  H     -2.902650    0.395080    1.109444
  H     -1.250401    0.969313    1.306534
  H     -2.254189   -0.901381   -0.900791
  H     -1.280687   -1.395979    0.490866
  H      0.054286   -1.122112   -1.600134
  H     -0.336511    0.632549   -1.602631

 Total Charge           Charge          ....    0
 Multiplicity           Mult            ....    1
 Number of Electrons    NEL             ....   48
 Basis Dimension        Dim             ....  164

ORBITAL ENERGIES
----------------

  NO   OCC          E(Eh)            E(eV)
   0   2.0000     -18.996626      -516.9245
   1   2.0000     -18.995445      -516.8923
   2   2.0000     -14.397982      -391.7890
   3   2.0000     -10.080128      -274.2942
   4   2.0000     -10.039607      -273.1916
   5   2.0000     -10.015857      -272.5453
   6   2.0000      -1.216106       -33.0919
   7   2.0000      -1.038358       -28.2552
   8   2.0000      -0.806854       -21.9556
   9   2.0000      -0.712743       -19.3947
  10   2.0000      -0.610536       -16.6135
  11   2.0000      -0.559141       -15.2150
  12   2.0000      -0.528184       -14.3726
  13   2.0000      -0.506480       -13.7820
  14   2.0000      -0.494161       -13.4468
  15   2.0000      -0.424238       -11.5441
  16   2.0000      -0.405160       -11.0250
  17   2.0000      -0.381171       -10.3722
  18   2.0000      -0.329235        -8.9589
  19   2.0000      -0.321257        -8.7418
  20   2.0000      -0.315321        -8.5803
  21   2.0000      -0.303766        -8.2659
  22   2.0000      -0.286454        -7.7948
  23   2.0000      -0.269323        -7.3286
  24   0.0000      -0.109758        -2.9867
  25   0.0000       0.093276         2.5382
  26   0.0000       0.105884         2.8813
  27   0.0000       0.126188         3.4338
  28   0.0000       0.131284         3.5724

MULLIKEN ATOMIC CHARGES
-----------------------
   0 C :   -0.524459
   1 C :   -0.224819
   2 C :   -0.278881
   3 N :    0.255897
   4 O :   -0.248074
   5 O :   -0.246428
   6 H :    0.164541
   7 H :    0.167678
   8 H :    0.165071
   9 H :    0.176235
  10 H :    0.168314
  11 H :    0.214714
  12 H :    0.210211
Sum of atomic charges:   -0.0000000

LOEWDIN ATOMIC CHARGES
----------------------
   0 C :   -0.419596
   1 C :   -0.257524
   2 C :    0.039164
   3 N :   -0.540417
   4 O :   -0.035996
   5 O :   -0.041506
   6 H :    0.159276
   7 H :    0.159968
   8 H :    0.158231
   9 H :    0.171904
  10 H :    0.173832
  11 H :    0.221496
  12 H :    0.211167

  Mayer bond orders larger than 0.100000
B(  0-C ,  1-C ) :   0.9032 B(  0-C ,  6-H ) :   0.9714 B(  0-C ,  7-H ) :   0.9639
B(  0-C ,  8-H ) :   0.9772 B(  1-C ,  2-C ) :   0.8911 B(  1-C ,  9-H ) :   0.9525
B(  1-C , 10-H ) :   0.9642 B(  2-C ,  3-N ) :   0.8755 B(  2-C , 11-H ) :   0.9149
B(  2-C , 12-H ) :   0.9594 B(  3-N ,  4-O ) :   1.7992 B(  3-N ,  5-O ) :   1.8174
B(  4-O ,  5-O ) :   0.2668

Dispersion correction           -0.002953743
FINAL SINGLE POINT ENERGY      -323.585838794290

DIPOLE MOMENT
-------------

Method             : SCF
Type of density    : Electron Density
Multiplicity       :   1
Irrep              :   0
Energy             :  -323.5954766467454533 Eh
Relativity type    :
Basis              : AO
                                X                 Y                 Z
Electronic contribution:      7.904207713      -0.412255744       0.111689167
Nuclear contribution   :     -9.492079349       0.044676955      -1.205558801
                        -----------------------------------------
Total Dipole Moment    :     -1.587871636      -0.367578789      -1.093869634
                        -----------------------------------------
Magnitude (a.u.)       :      1.962906333
Magnitude (Debye)      :      4.989311392

Rotational constants in cm-1:             0.204874             0.085802             0.079184
Rotational constants in MHz :          6141.960813          2572.289124          2373.872339

                             ****ORCA TERMINATED NORMALLY****
TOTAL RUN TIME: 0 days 0 hours 0 minutes 28 seconds 356 msec
