                         Program Version 6.0.0  -   RELEASE  -
|  1> ! pbe def2-sv(p) def2/J RI DEFGRID1 loosescf d4 GCP(DFT/SV(P)) printgap
|  2> %output
|  3>     printlevel normal
|  4> end
|  5> * xyz 0 1
|  6> C 2.1250591507 -0.3239768734 -0.6025943625
|  7> C 1.3873038634 0.4870544073 0.4569107404
|  8> C -0.0217205214 -0.0334288122 0.7407001366
|  9> C -0.9893333476 0.1582328858 -0.4356424959
| 10> N -2.3656446736 -0.2251530535 -0.154922698
| 11> H 1.6333503738 -0.2425356574 -1.5680895613
| 12> H 3.1446933914 0.0382307707 -0.709211058
| 13> H 2.1617682678 -1.373897302 -0.3204513703
| 14> H 1.9609076797 0.4576281809 1.3863620724
| 15> H 1.3259592349 1.5301344931 0.1387460806
| 16> H 0.0287464914 -1.0958013412 0.9956490177
| 17> H -0.4241575749 0.4978437637 1.6087280161
| 18> H -0.6590783308 -0.4334172935 -1.2922404862
| 19> H -0.9955321537 1.2110115865 -0.73259927
| 20> H -2.7135124878 0.3123670266 0.6327262101
| 21> H -2.3957263903 -1.203275423 0.1140904567
| 22> *
| 23>
| 24>                          ****END OF INPUT****

CARTESIAN COORDINATES (ANGSTROEM)
---------------------------------
  C      2.125059   -0.323977   -0.602594
  C      1.387304    0.487054    0.456911
  C     -0.021721   -0.033429    0.740700
  C     -0.989333    0.158233   -0.435642
  N     -2.365645   -0.225153   -0.154923
  H      1.633350   -0.242536   -1.568090
  H      3.144693    0.038231   -0.709211
  H      2.161768   -1.373897   -0.320451
  H      1.960908    0.457628    1.386362
  H      1.325959    1.530134    0.138746
  H      0.028746   -1.095801    0.995649
  H     -0.424158    0.497844    1.608728
  H     -0.659078   -0.433417   -1.292240
  H     -0.995532    1.211012   -0.732599
  H     -2.713512    0.312367    0.632726
  H     -2.395726   -1.203275    0.114090

 Total Charge           Charge          ....    0
 Multiplicity           Mult            ....    1
 Number of Electrons    NEL             ....   42
 Basis Dimension        Dim             ....   92

ORBITAL ENERGIES
----------------

  NO   OCC          E(Eh)            E(eV)
   0   2.0000     -13.952964      -379.6794
   1   2.0000      -9.902179      -269.4520
   2   2.0000      -9.883293      -268.9381
   3   2.0000      -9.879478      -268.8343
   4   2.0000      -9.872809      -268.6528
   5   2.0000      -0.790849       -21.5201
   6   2.0000      -0.707087       -19.2408
   7   2.0000      -0.625204       -17.0127
   8   2.0000      -0.559814       -15.2333
   9   2.0000      -0.507465       -13.8088
  10   2.0000      -0.447538       -12.1781
  11   2.0000      -0.411804       -11.2058
  12   2.0000      -0.396522       -10.7899
  13   2.0000      -0.364355        -9.9146
  14   2.0000      -0.356353        -9.6969
  15   2.0000      -0.337596        -9.1865
  16   2.0000      -0.313559        -8.5324
  17   2.0000      -0.297051        -8.0832
  18   2.0000      -0.287220        -7.8157
  19   2.0000      -0.282340        -7.6829
  20   2.0000      -0.177109        -4.8194
  21   0.0000       0.034363         0.9351
  22   0.0000       0.048282         1.3138
  23   0.0000       0.063445         1.7264
  24   0.0000       0.071082         1.9343
  25   0.0000       0.101611         2.7650

MULLIKEN ATOMIC CHARGES
-----------------------
   0 C :   -0.293975
   1 C :   -0.173940
   2 C :   -0.181165
   3 C :   -0.104762
   4 N :   -0.437128
   5 H :    0.111716
   6 H :    0.103342
   7 H :    0.096906
   8 H :    0.084581
   9 H :    0.083630
  10 H :    0.070949
  11 H :    0.070690
  12 H :    0.092398
  13 H :    0.083120
  14 H :    0.196577
  15 H :    0.197062
Sum of atomic charges:   -0.0000000

LOEWDIN ATOMIC CHARGES
----------------------
   0 C :   -0.343359
   1 C :   -0.235063
   2 C :   -0.252508
   3 C :   -0.184008
   4 N :   -0.406631
   5 H :    0.117459
   6 H :    0.119756
   7 H :    0.116548
   8 H :    0.115312
   9 H :    0.114189
  10 H :    0.108016
  11 H :    0.108553
  12 H :    0.111534
  13 H :    0.110700
  14 H :    0.199260
  15 H :    0.200242

  Mayer bond orders larger than 0.100000
B(  0-C ,  1-C ) :   1.1505 B(  0-C ,  5-H ) :   0.9524 B(  0-C ,  6-H ) :   0.9519
B(  0-C ,  7-H ) :   0.9554 B(  1-C ,  2-C ) :   1.1047 B(  1-C ,  8-H ) :   0.9256
B(  1-C ,  9-H ) :   0.9262 B(  2-C ,  3-C ) :   1.0985 B(  2-C , 10-H ) :   0.9193
B(  2-C , 11-H ) :   0.9204 B(  3-C ,  4-N ) :   1.1422 B(  3-C , 12-H ) :   0.9292
B(  3-C , 13-H ) :   0.9318 B(  4-N , 14-H ) :   0.9116 B(  4-N , 15-H ) :   0.9118

Dispersion correction           -0.010113152
FINAL SINGLE POINT ENERGY      -213.244895061584

DIPOLE MOMENT
-------------

Method             : SCF
Type of density    : Electron Density
Multiplicity       :   1
Irrep              :   0
Energy             :  -213.3052232890021855 Eh
Relativity type    :
Basis              : AO
                                X                 Y                 Z
Electronic contribution:     -2.612980567       0.186283807       0.217857354
Nuclear contribution   :      2.864809799      -0.284284373       0.237174714
                        -----------------------------------------
Total Dipole Moment    :      0.251829232      -0.098000566       0.455032068
                        -----------------------------------------
Magnitude (a.u.)       :      0.529222312
Magnitude (Debye)      :      1.345176214

Rotational constants in cm-1:             0.405933             0.077431             0.071764
Rotational constants in MHz :         12169.558119          2321.334408          2151.425611

                             ****ORCA TERMINATED NORMALLY****
TOTAL RUN TIME: 0 days 0 hours 0 minutes 7 seconds 712 msec
