                         Program Version 6.0.0  -   RELEASE  -
|  1> ! r2scan-3c def2/J RI DEFGRID2 scfconv6 printgap
|  2> %output
|  3>     printlevel normal
|  4> end
|  5> * xyz 0 1
|  6> C -3.8907985447 -0.8476611466 -0.5084038459
|  7> C -3.2999630861 0.002466417 0.6111667404
|  8> C -1.7969616551 -0.2166502943 0.8105957612
|  9> C -1.0003538229 0.3064204855 -0.3662940552
| 10> I 1.1429940756 0.0891783824 -0.0554209805
| 11> H -3.6636508311 -1.8991857287 -0.3483424235
| 12> H -4.9711964073 -0.7316951258 -0.5328615528
| 13> H -3.5000509539 -0.552618041 -1.4788420572
| 14> H -3.8017106855 -0.2484654843 1.5472653289
| 15> H -3.4878830126 1.0587149894 0.4072293942
| 16> H -1.4829986941 0.300582532 1.7200561462
| 17> H -1.6007646518 -1.2823461345 0.9474527718
| 18> H -1.1679498066 1.3687911537 -0.5231754999
| 19> H -1.2130587766 -0.240030939 -1.2799041163
| 20> *
| 21>
| 22>                          ****END OF INPUT****

CARTESIAN COORDINATES (ANGSTROEM)
---------------------------------
  C     -3.890799   -0.847661   -0.508404
  C     -3.299963    0.002466    0.611167
  C     -1.796962   -0.216650    0.810596
  C     -1.000354    0.306420   -0.366294
  I      1.142994    0.089178   -0.055421
  H     -3.663651   -1.899186   -0.348342
  H     -4.971196   -0.731695   -0.532862
  H     -3.500051   -0.552618   -1.478842
  H     -3.801711   -0.248465    1.547265
  H     -3.487883    1.058715    0.407229
  H     -1.482999    0.300583    1.720056
  H     -1.600765   -1.282346    0.947453
  H     -1.167950    1.368791   -0.523175
  H     -1.213059   -0.240031   -1.279904

 Total Charge           Charge          ....    0
 Multiplicity           Mult            ....    1
 Number of Electrons    NEL             ....   58
 Basis Dimension        Dim             ....  157

ORBITAL ENERGIES
----------------

  NO   OCC          E(Eh)            E(eV)
   0   2.0000     -10.084290      -274.4075
   1   2.0000     -10.043857      -273.3072
   2   2.0000     -10.040517      -273.2164
   3   2.0000     -10.027390      -272.8591
   4   2.0000      -6.803051      -185.1204
   5   2.0000      -4.821433      -131.1979
   6   2.0000      -4.805548      -130.7656
   7   2.0000      -4.805328      -130.7596
   8   2.0000      -1.856837       -50.5271
   9   2.0000      -1.852709       -50.4148
  10   2.0000      -1.852516       -50.4095
  11   2.0000      -1.839629       -50.0588
  12   2.0000      -1.839613       -50.0584
  13   2.0000      -0.786757       -21.4088
  14   2.0000      -0.718252       -19.5446
  15   2.0000      -0.650927       -17.7126
  16   2.0000      -0.598371       -16.2825
  17   2.0000      -0.550985       -14.9931
  18   2.0000      -0.452746       -12.3199
  19   2.0000      -0.432383       -11.7657
  20   2.0000      -0.407994       -11.1021
  21   2.0000      -0.379483       -10.3263
  22   2.0000      -0.356157        -9.6915
  23   2.0000      -0.346099        -9.4178
  24   2.0000      -0.314650        -8.5621
  25   2.0000      -0.312344        -8.4993
  26   2.0000      -0.298743        -8.1292
  27   2.0000      -0.230957        -6.2847
  28   2.0000      -0.230472        -6.2715
  29   0.0000      -0.055824        -1.5191
  30   0.0000       0.088724         2.4143
  31   0.0000       0.103525         2.8171
  32   0.0000       0.109489         2.9793
  33   0.0000       0.119278         3.2457

MULLIKEN ATOMIC CHARGES
-----------------------
   0 C :   -0.479488
   1 C :   -0.227594
   2 C :   -0.239154
   3 C :   -0.300188
   4 I :   -0.140889
   5 H :    0.147092
   6 H :    0.149444
   7 H :    0.145673
   8 H :    0.149254
   9 H :    0.134386
  10 H :    0.158363
  11 H :    0.152452
  12 H :    0.173434
  13 H :    0.177216
Sum of atomic charges:    0.0000000

LOEWDIN ATOMIC CHARGES
----------------------
   0 C :   -0.425237
   1 C :   -0.314673
   2 C :   -0.329464
   3 C :   -0.412948
   4 I :    0.064470
   5 H :    0.152375
   6 H :    0.153472
   7 H :    0.148226
   8 H :    0.157266
   9 H :    0.153274
  10 H :    0.162578
  11 H :    0.161227
  12 H :    0.164710
  13 H :    0.164723

  Mayer bond orders larger than 0.100000
B(  0-C ,  1-C ) :   0.9002 B(  0-C ,  5-H ) :   0.9786 B(  0-C ,  6-H ) :   0.9673
B(  0-C ,  7-H ) :   0.9838 B(  1-C ,  2-C ) :   0.8792 B(  1-C ,  8-H ) :   0.9621
B(  1-C ,  9-H ) :   0.9754 B(  2-C ,  3-C ) :   0.9177 B(  2-C , 10-H ) :   0.9634
B(  2-C , 11-H ) :   0.9750 B(  3-C ,  4-I ) :   0.9702 B(  3-C , 12-H ) :   0.9523
B(  3-C , 13-H ) :   0.9569

Dispersion correction           -0.003513931
FINAL SINGLE POINT ENERGY      -455.528441396085

DIPOLE MOMENT
-------------

Method             : SCF
Type of density    : Electron Density
Multiplicity       :   1
Irrep              :   0
Energy             :  -455.5312268851334920 Eh
Relativity type    :
Basis              : AO
                                X                 Y                 Z
Electronic contribution:    105.332291323       8.590635116      -4.445390069
Nuclear contribution   :   -106.278135986      -8.558778089       4.451455620
                        -----------------------------------------
Total Dipole Moment    :     -0.945844663       0.031857027       0.006065550
                        -----------------------------------------
Magnitude (a.u.)       :      0.946400437
Magnitude (Debye)      :      2.405558738

Rotational constants in cm-1:             0.404393             0.026557             0.025899
Rotational constants in MHz :         12123.404842           796.143925           776.431734

                             ****ORCA TERMINATED NORMALLY****
TOTAL RUN TIME: 0 days 0 hours 0 minutes 15 seconds 924 msec
