                         Program Version 6.0.0  -   RELEASE  -
|  1> ! r2scan-3c def2/J RI DEFGRID2 scfconv6 printgap
|  2> %output
|  3>     printlevel normal
|  4> end
|  5> %cpcm
|  6>     smd true
|  7>     smdsolvent "water"
|  8> end
|  9> * xyz 0 1
| 10> C -3.8907985447 -0.8476611466 -0.5084038459
| 11> C -3.2999630861 0.002466417 0.6111667404
| 12> C -1.7969616551 -0.2166502943 0.8105957612
| 13> C -1.0003538229 0.3064204855 -0.3662940552
| 14> I 1.1429940756 0.0891783824 -0.0554209805
| 15> H -3.6636508311 -1.8991857287 -0.3483424235
| 16> H -4.9711964073 -0.7316951258 -0.5328615528
| 17> H -3.5000509539 -0.552618041 -1.4788420572
| 18> H -3.8017106855 -0.2484654843 1.5472653289
| 19> H -3.4878830126 1.0587149894 0.4072293942
| 20> H -1.4829986941 0.300582532 1.7200561462
| 21> H -1.6007646518 -1.2823461345 0.9474527718
| 22> H -1.1679498066 1.3687911537 -0.5231754999
| 23> H -1.2130587766 -0.240030939 -1.2799041163
| 24> *
| 25>
| 26>                          ****END OF INPUT****

CARTESIAN COORDINATES (ANGSTROEM)
---------------------------------
  C     -3.890799   -0.847661   -0.508404
  C     -3.299963    0.002466    0.611167
  C     -1.796962   -0.216650    0.810596
  C     -1.000354    0.306420   -0.366294
  I      1.142994    0.089178   -0.055421
  H     -3.663651   -1.899186   -0.348342
  H     -4.971196   -0.731695   -0.532862
  H     -3.500051   -0.552618   -1.478842
  H     -3.801711   -0.248465    1.547265
  H     -3.487883    1.058715    0.407229
  H     -1.482999    0.300583    1.720056
  H     -1.600765   -1.282346    0.947453
  H     -1.167950    1.368791   -0.523175
  H     -1.213059   -0.240031   -1.279904

 Total Charge           Charge          ....    0
 Multiplicity           Mult            ....    1
 Number of Electrons    NEL             ....   58
 Basis Dimension        Dim             ....  157

ORBITAL ENERGIES
----------------

  NO   OCC          E(Eh)            E(eV)
   0   2.0000     -10.070751      -274.0391
   1   2.0000     -10.028090      -272.8782
   2   2.0000     -10.022772      -272.7335
   3   2.0000     -10.009034      -272.3597
   4   2.0000      -6.801311      -185.0731
   5   2.0000      -4.818701      -131.1235
   6   2.0000      -4.804336      -130.7326
   7   2.0000      -4.804088      -130.7259
   8   2.0000      -1.854310       -50.4583
   9   2.0000      -1.850589       -50.3571
  10   2.0000      -1.850371       -50.3512
  11   2.0000      -1.838781       -50.0358
  12   2.0000      -1.838771       -50.0355
  13   2.0000      -0.770504       -20.9665
  14   2.0000      -0.704305       -19.1651
  15   2.0000      -0.640903       -17.4398
  16   2.0000      -0.586158       -15.9502
  17   2.0000      -0.534162       -14.5353
  18   2.0000      -0.435617       -11.8537
  19   2.0000      -0.415043       -11.2939
  20   2.0000      -0.391371       -10.6497
  21   2.0000      -0.362605        -9.8670
  22   2.0000      -0.339789        -9.2461
  23   2.0000      -0.331701        -9.0261
  24   2.0000      -0.296355        -8.0642
  25   2.0000      -0.295108        -8.0303
  26   2.0000      -0.285860        -7.7786
  27   2.0000      -0.232183        -6.3180
  28   2.0000      -0.231578        -6.3016
  29   0.0000      -0.046245        -1.2584
  30   0.0000       0.106808         2.9064
  31   0.0000       0.118287         3.2188
  32   0.0000       0.126166         3.4331
  33   0.0000       0.132963         3.6181

MULLIKEN ATOMIC CHARGES
-----------------------
   0 C :   -0.517149
   1 C :   -0.239713
   2 C :   -0.252820
   3 C :   -0.275297
   4 I :   -0.210354
   5 H :    0.155248
   6 H :    0.156700
   7 H :    0.159946
   8 H :    0.158165
   9 H :    0.146928
  10 H :    0.163666
  11 H :    0.160172
  12 H :    0.195785
  13 H :    0.198722
Sum of atomic charges:    0.0000000

LOEWDIN ATOMIC CHARGES
----------------------
   0 C :   -0.433046
   1 C :   -0.313558
   2 C :   -0.329763
   3 C :   -0.399037
   4 I :    0.024751
   5 H :    0.154007
   6 H :    0.154269
   7 H :    0.152555
   8 H :    0.159689
   9 H :    0.157244
  10 H :    0.163382
  11 H :    0.162575
  12 H :    0.173592
  13 H :    0.173340

  Mayer bond orders larger than 0.100000
B(  0-C ,  1-C ) :   0.8958 B(  0-C ,  5-H ) :   0.9769 B(  0-C ,  6-H ) :   0.9664
B(  0-C ,  7-H ) :   0.9797 B(  1-C ,  2-C ) :   0.8789 B(  1-C ,  8-H ) :   0.9626
B(  1-C ,  9-H ) :   0.9755 B(  2-C ,  3-C ) :   0.9156 B(  2-C , 10-H ) :   0.9636
B(  2-C , 11-H ) :   0.9750 B(  3-C ,  4-I ) :   0.9110 B(  3-C , 12-H ) :   0.9460
B(  3-C , 13-H ) :   0.9494

Dispersion correction           -0.003513931
FINAL SINGLE POINT ENERGY      -455.530723648595

DIPOLE MOMENT
-------------

Method             : SCF
Type of density    : Electron Density
Multiplicity       :   1
Irrep              :   0
Energy             :  -455.5335091376438754 Eh
Relativity type    :
Basis              : AO
                                X                 Y                 Z
Electronic contribution:    105.084351387       8.641618539      -4.495934944
Nuclear contribution   :   -106.278135986      -8.558778089       4.451455620
                        -----------------------------------------
Total Dipole Moment    :     -1.193784599       0.082840450      -0.044479325
                        -----------------------------------------
Magnitude (a.u.)       :      1.197481783
Magnitude (Debye)      :      3.043756800

Rotational constants in cm-1:             0.404393             0.026557             0.025899
Rotational constants in MHz :         12123.404842           796.143925           776.431734

                             ****ORCA TERMINATED NORMALLY****
TOTAL RUN TIME: 0 days 0 hours 0 minutes 16 seconds 942 msec
