                         Program Version 6.0.0  -   RELEASE  -
|  1> ! pbe def2-sv(p) def2/J RI DEFGRID1 loosescf d4 GCP(DFT/SV(P)) printgap
|  2> %output
|  3>     printlevel normal
|  4> end
|  5> * xyz 0 1
|  6> C -4.5691782477 -1.1088329877 0.1919384746
|  7> C -3.8301519104 -2.2666550144 -0.007963965
|  8> C -2.4570471652 -2.1953393818 -0.1526090154
|  9> C -1.7982477574 -0.968585904 -0.101046322
| 10> C -2.5450244415 0.1977068979 0.1003708058
| 11> C -3.928707731 0.114677638 0.2457373351
| 12> C -1.8877206592 1.5089890945 0.1619277072
| 13> O -2.5291884706 2.5412526389 0.3476854744
| 14> C -0.4243046533 1.5285587328 -0.0096609822
| 15> C 0.1957131994 2.7645005443 0.0490645272
| 16> C 1.5764498308 2.8676231907 -0.0991361541
| 17> C 2.3325048389 1.7456866225 -0.3077297745
| 18> C 1.7427638605 0.4599752324 -0.3840825735
| 19> C 0.3263913597 0.3480069263 -0.2228361669
| 20> C -0.3315933875 -0.9401484615 -0.2632124409
| 21> O 0.2759677038 -2.0145158197 -0.4203618676
| 22> N 2.4886858811 -0.6289942346 -0.6144275116
| 23> C 3.9232591436 -0.6734388851 -0.7463349917
| 24> C 4.6430540749 -0.6483619133 0.6158567158
| 25> O 4.5510327634 -1.8740074075 1.3053458461
| 26> H -5.6404604551 -1.1616867323 0.3054351024
| 27> H -4.3253285499 -3.22401318 -0.0507761559
| 28> H -1.8649702055 -3.0848823522 -0.3090267031
| 29> H -4.4780379622 1.0315674732 0.400551926
| 30> H -0.4166129949 3.6374736559 0.2146156904
| 31> H 2.04852434 3.8359949316 -0.0465108408
| 32> H 3.3997258509 1.8404600373 -0.4149572028
| 33> H 1.9747403234 -1.5072783175 -0.6326776202
| 34> H 4.277448794 0.161235536 -1.3539717122
| 35> H 4.1816098374 -1.6042839686 -1.2526019756
| 36> H 4.2461592737 0.1676884247 1.2327510522
| 37> H 5.7107447835 -0.4865095455 0.456824975
| 38> H 3.6233715298 -2.0631242013 1.500902958
| 39> *
| 40>
| 41>                          ****END OF INPUT****

CARTESIAN COORDINATES (ANGSTROEM)
---------------------------------
  C     -4.569178   -1.108833    0.191938
  C     -3.830152   -2.266655   -0.007964
  C     -2.457047   -2.195339   -0.152609
  C     -1.798248   -0.968586   -0.101046
  C     -2.545024    0.197707    0.100371
  C     -3.928708    0.114678    0.245737
  C     -1.887721    1.508989    0.161928
  O     -2.529188    2.541253    0.347685
  C     -0.424305    1.528559   -0.009661
  C      0.195713    2.764501    0.049065
  C      1.576450    2.867623   -0.099136
  C      2.332505    1.745687   -0.307730
  C      1.742764    0.459975   -0.384083
  C      0.326391    0.348007   -0.222836
  C     -0.331593   -0.940148   -0.263212
  O      0.275968   -2.014516   -0.420362
  N      2.488686   -0.628994   -0.614428
  C      3.923259   -0.673439   -0.746335
  C      4.643054   -0.648362    0.615857
  O      4.551033   -1.874007    1.305346
  H     -5.640460   -1.161687    0.305435
  H     -4.325329   -3.224013   -0.050776
  H     -1.864970   -3.084882   -0.309027
  H     -4.478038    1.031567    0.400552
  H     -0.416613    3.637474    0.214616
  H      2.048524    3.835995   -0.046511
  H      3.399726    1.840460   -0.414957
  H      1.974740   -1.507278   -0.632678
  H      4.277449    0.161236   -1.353972
  H      4.181610   -1.604284   -1.252602
  H      4.246159    0.167688    1.232751
  H      5.710745   -0.486510    0.456825
  H      3.623372   -2.063124    1.500903

 Total Charge           Charge          ....    0
 Multiplicity           Mult            ....    1
 Number of Electrons    NEL             ....  140
 Basis Dimension        Dim             ....  306

ORBITAL ENERGIES
----------------

  NO   OCC          E(Eh)            E(eV)
   0   2.0000     -18.753527      -510.3094
   1   2.0000     -18.752661      -510.2858
   2   2.0000     -18.745162      -510.0818
   3   2.0000     -14.023738      -381.6053
   4   2.0000      -9.981225      -271.6029
   5   2.0000      -9.976730      -271.4806
   6   2.0000      -9.963211      -271.1127
   7   2.0000      -9.943949      -270.5886
   8   2.0000      -9.937460      -270.4120
   9   2.0000      -9.916226      -269.8342
  10   2.0000      -9.915558      -269.8160
  11   2.0000      -9.915278      -269.8084
  12   2.0000      -9.913744      -269.7667
  13   2.0000      -9.912895      -269.7436
  14   2.0000      -9.910967      -269.6911
  15   2.0000      -9.910474      -269.6777
  16   2.0000      -9.910245      -269.6715
  17   2.0000      -9.907165      -269.5877
  18   2.0000      -9.906647      -269.5736
  19   2.0000      -9.898302      -269.3465
  20   2.0000      -0.944779       -25.7087
  21   2.0000      -0.937740       -25.5172
  22   2.0000      -0.931263       -25.3409
  23   2.0000      -0.876552       -23.8522
  24   2.0000      -0.799621       -21.7588
  25   2.0000      -0.784857       -21.3571
  26   2.0000      -0.728172       -19.8146
  27   2.0000      -0.704593       -19.1729
  28   2.0000      -0.690495       -18.7893
  29   2.0000      -0.686625       -18.6840
  30   2.0000      -0.659070       -17.9342
  31   2.0000      -0.612596       -16.6696
  32   2.0000      -0.599570       -16.3151
  33   2.0000      -0.582393       -15.8477
  34   2.0000      -0.574809       -15.6414
  35   2.0000      -0.539261       -14.6740
  36   2.0000      -0.526813       -14.3353
  37   2.0000      -0.500145       -13.6096
  38   2.0000      -0.492612       -13.4047
  39   2.0000      -0.476749       -12.9730
  40   2.0000      -0.465742       -12.6735
  41   2.0000      -0.448812       -12.2128
  42   2.0000      -0.438636       -11.9359
  43   2.0000      -0.429737       -11.6937
  44   2.0000      -0.425487       -11.5781
  45   2.0000      -0.416036       -11.3209
  46   2.0000      -0.411905       -11.2085
  47   2.0000      -0.401414       -10.9230
  48   2.0000      -0.390626       -10.6295
  49   2.0000      -0.387077       -10.5329
  50   2.0000      -0.380034       -10.3413
  51   2.0000      -0.373045       -10.1511
  52   2.0000      -0.369523       -10.0552
  53   2.0000      -0.362552        -9.8655
  54   2.0000      -0.356633        -9.7045
  55   2.0000      -0.352726        -9.5981
  56   2.0000      -0.339630        -9.2418
  57   2.0000      -0.333903        -9.0860
  58   2.0000      -0.326468        -8.8836
  59   2.0000      -0.319653        -8.6982
  60   2.0000      -0.310985        -8.4623
  61   2.0000      -0.297531        -8.0962
  62   2.0000      -0.280542        -7.6339
  63   2.0000      -0.252538        -6.8719
  64   2.0000      -0.245114        -6.6699
  65   2.0000      -0.243266        -6.6196
  66   2.0000      -0.230415        -6.2699
  67   2.0000      -0.221480        -6.0268
  68   2.0000      -0.208254        -5.6669
  69   2.0000      -0.191203        -5.2029
  70   0.0000      -0.129304        -3.5185
  71   0.0000      -0.081620        -2.2210
  72   0.0000      -0.054698        -1.4884
  73   0.0000      -0.034815        -0.9474
  74   0.0000       0.014873         0.4047

MULLIKEN ATOMIC CHARGES
-----------------------
   0 C :   -0.020725
   1 C :   -0.016221
   2 C :   -0.133476
   3 C :    0.051291
   4 C :    0.038104
   5 C :   -0.125416
   6 C :    0.086039
   7 O :   -0.149264
   8 C :    0.018498
   9 C :   -0.138024
  10 C :   -0.008834
  11 C :   -0.156153
  12 C :    0.074829
  13 C :    0.052165
  14 C :    0.070992
  15 O :   -0.221396
  16 N :   -0.239738
  17 C :   -0.095596
  18 C :    0.009598
  19 O :   -0.437478
  20 H :    0.063651
  21 H :    0.063247
  22 H :    0.059475
  23 H :    0.059217
  24 H :    0.056734
  25 H :    0.060729
  26 H :    0.038936
  27 H :    0.242808
  28 H :    0.103081
  29 H :    0.109378
  30 H :    0.092900
  31 H :    0.094760
  32 H :    0.295887
Sum of atomic charges:   -0.0000000

LOEWDIN ATOMIC CHARGES
----------------------
   0 C :   -0.106809
   1 C :   -0.104347
   2 C :   -0.088155
   3 C :   -0.045239
   4 C :   -0.053281
   5 C :   -0.082373
   6 C :    0.058766
   7 O :   -0.129912
   8 C :   -0.044069
   9 C :   -0.110202
  10 C :   -0.095229
  11 C :   -0.148172
  12 C :    0.033278
  13 C :   -0.090347
  14 C :    0.056834
  15 O :   -0.179637
  16 N :   -0.133736
  17 C :   -0.183234
  18 C :   -0.132293
  19 O :   -0.338595
  20 H :    0.129285
  21 H :    0.129137
  22 H :    0.135258
  23 H :    0.136306
  24 H :    0.135698
  25 H :    0.130573
  26 H :    0.126964
  27 H :    0.240475
  28 H :    0.120686
  29 H :    0.130152
  30 H :    0.102947
  31 H :    0.117542
  32 H :    0.281727

  Mayer bond orders larger than 0.100000
B(  0-C ,  1-C ) :   1.3272 B(  0-C ,  5-C ) :   1.3359 B(  0-C , 20-H ) :   0.9668
B(  1-C ,  2-C ) :   1.3359 B(  1-C , 21-H ) :   0.9665 B(  2-C ,  3-C ) :   1.3802
B(  2-C , 22-H ) :   0.9547 B(  3-C ,  4-C ) :   1.3344 B(  3-C , 14-C ) :   0.9808
B(  4-C ,  5-C ) :   1.3790 B(  4-C ,  6-C ) :   0.9566 B(  5-C , 23-H ) :   0.9570
B(  6-C ,  7-O ) :   2.1568 B(  6-C ,  8-C ) :   0.9484 B(  8-C ,  9-C ) :   1.4273
B(  8-C , 13-C ) :   1.3025 B(  9-C , 10-C ) :   1.2320 B(  9-C , 24-H ) :   0.9567
B( 10-C , 11-C ) :   1.3852 B( 10-C , 25-H ) :   0.9658 B( 11-C , 12-C ) :   1.2443
B( 11-C , 26-H ) :   0.9511 B( 12-C , 13-C ) :   1.2163 B( 12-C , 16-N ) :   1.3833
B( 13-C , 14-C ) :   1.0250 B( 14-C , 15-O ) :   1.9588 B( 15-O , 27-H ) :   0.1464
B( 16-N , 17-C ) :   1.0324 B( 16-N , 27-H ) :   0.7633 B( 17-C , 18-C ) :   1.0792
B( 17-C , 28-H ) :   0.8991 B( 17-C , 29-H ) :   0.9182 B( 18-C , 19-O ) :   1.0733
B( 18-C , 30-H ) :   0.9181 B( 18-C , 31-H ) :   0.9261 B( 19-O , 32-H ) :   0.8481

Dispersion correction           -0.046689064
FINAL SINGLE POINT ENERGY      -896.123727438562

DIPOLE MOMENT
-------------

Method             : SCF
Type of density    : Electron Density
Multiplicity       :   1
Irrep              :   0
Energy             :  -896.2206298066244017 Eh
Relativity type    :
Basis              : AO
                                X                 Y                 Z
Electronic contribution:    -11.590724738       2.156292619      -0.333912036
Nuclear contribution   :     11.997109766      -2.328829172       0.062311405
                        -----------------------------------------
Total Dipole Moment    :      0.406385028      -0.172536553      -0.271600630
                        -----------------------------------------
Magnitude (a.u.)       :      0.518347910
Magnitude (Debye)      :      1.317535680

Rotational constants in cm-1:             0.020790             0.007645             0.005835
Rotational constants in MHz :           623.260752           229.188503           174.914542

                             ****ORCA TERMINATED NORMALLY****
TOTAL RUN TIME: 0 days 0 hours 0 minutes 34 seconds 596 msec
