                         Program Version 6.0.0  -   RELEASE  -
|  1> ! pbe def2-sv(p) def2/J RI DEFGRID1 loosescf d4 GCP(DFT/SV(P)) printgap
|  2> %output
|  3>     printlevel normal
|  4> end
|  5> * xyz 0 1
|  6> C -3.4787814343 -0.0935338075 -0.4077219735
|  7> C -2.6014479682 -0.2332323177 0.8308012233
|  8> C -1.1863887187 0.310415673 0.6332493792
|  9> C -0.3761597648 -0.5084488241 -0.3837392204
| 10> C 1.0176213072 0.0505094071 -0.4547374138
| 11> O 1.3897690052 0.9058835973 -1.2312284513
| 12> O 1.8072448022 -0.4804625783 0.4723483316
| 13> C 3.1502605852 0.0030082025 0.5558785471
| 14> H -4.4966401721 -0.4007560396 -0.1814329518
| 15> H -3.4991228514 0.9405330662 -0.7442104398
| 16> H -3.1119305348 -0.7139024386 -1.2206908734
| 17> H -3.0619565876 0.3171136965 1.6534798632
| 18> H -2.5465145708 -1.2834031027 1.1225283554
| 19> H -0.6614379266 0.2908216333 1.5907274145
| 20> H -1.2353599731 1.3478104337 0.2949278447
| 21> H -0.8281269687 -0.4353098925 -1.3712525631
| 22> H -0.3277197457 -1.5476567055 -0.0613232995
| 23> H 3.1496927986 1.0553342713 0.8421455453
| 24> H 3.6446970416 -0.1008677391 -0.4106223999
| 25> H 3.6348749612 -0.6066523478 1.3117469652
| 26> *
| 27>
| 28>                          ****END OF INPUT****

CARTESIAN COORDINATES (ANGSTROEM)
---------------------------------
  C     -3.478781   -0.093534   -0.407722
  C     -2.601448   -0.233232    0.830801
  C     -1.186389    0.310416    0.633249
  C     -0.376160   -0.508449   -0.383739
  C      1.017621    0.050509   -0.454737
  O      1.389769    0.905884   -1.231228
  O      1.807245   -0.480463    0.472348
  C      3.150261    0.003008    0.555879
  H     -4.496640   -0.400756   -0.181433
  H     -3.499123    0.940533   -0.744210
  H     -3.111931   -0.713902   -1.220691
  H     -3.061957    0.317114    1.653480
  H     -2.546515   -1.283403    1.122528
  H     -0.661438    0.290822    1.590727
  H     -1.235360    1.347810    0.294928
  H     -0.828127   -0.435310   -1.371253
  H     -0.327720   -1.547657   -0.061323
  H      3.149693    1.055334    0.842146
  H      3.644697   -0.100868   -0.410622
  H      3.634875   -0.606652    1.311747

 Total Charge           Charge          ....    0
 Multiplicity           Mult            ....    1
 Number of Electrons    NEL             ....   64
 Basis Dimension        Dim             ....  136

ORBITAL ENERGIES
----------------

  NO   OCC          E(Eh)            E(eV)
   0   2.0000     -18.797250      -511.4992
   1   2.0000     -18.730192      -509.6744
   2   2.0000     -10.000673      -272.1322
   3   2.0000      -9.939662      -270.4720
   4   2.0000      -9.894462      -269.2420
   5   2.0000      -9.893884      -269.2263
   6   2.0000      -9.889009      -269.0936
   7   2.0000      -9.877131      -268.7704
   8   2.0000      -1.003137       -27.2968
   9   2.0000      -0.905685       -24.6449
  10   2.0000      -0.733701       -19.9650
  11   2.0000      -0.685170       -18.6444
  12   2.0000      -0.643053       -17.4984
  13   2.0000      -0.586632       -15.9631
  14   2.0000      -0.518031       -14.0963
  15   2.0000      -0.504764       -13.7353
  16   2.0000      -0.449928       -12.2432
  17   2.0000      -0.432969       -11.7817
  18   2.0000      -0.426778       -11.6132
  19   2.0000      -0.403289       -10.9741
  20   2.0000      -0.396796       -10.7974
  21   2.0000      -0.376438       -10.2434
  22   2.0000      -0.360504        -9.8098
  23   2.0000      -0.354204        -9.6384
  24   2.0000      -0.336531        -9.1575
  25   2.0000      -0.322197        -8.7674
  26   2.0000      -0.304973        -8.2987
  27   2.0000      -0.294094        -8.0027
  28   2.0000      -0.291932        -7.9439
  29   2.0000      -0.286342        -7.7918
  30   2.0000      -0.255382        -6.9493
  31   2.0000      -0.213572        -5.8116
  32   0.0000      -0.016779        -0.4566
  33   0.0000       0.037132         1.0104
  34   0.0000       0.056363         1.5337
  35   0.0000       0.067927         1.8484
  36   0.0000       0.070416         1.9161

MULLIKEN ATOMIC CHARGES
-----------------------
   0 C :   -0.297591
   1 C :   -0.143026
   2 C :   -0.216634
   3 C :   -0.121325
   4 C :    0.102810
   5 O :   -0.213879
   6 O :   -0.244353
   7 C :   -0.107291
   8 H :    0.105686
   9 H :    0.102925
  10 H :    0.110793
  11 H :    0.088783
  12 H :    0.083642
  13 H :    0.094276
  14 H :    0.098672
  15 H :    0.106197
  16 H :    0.092281
  17 H :    0.117603
  18 H :    0.120154
  19 H :    0.120277
Sum of atomic charges:    0.0000000

LOEWDIN ATOMIC CHARGES
----------------------
   0 C :   -0.343257
   1 C :   -0.233154
   2 C :   -0.218435
   3 C :   -0.242867
   4 C :    0.035058
   5 O :   -0.172358
   6 O :   -0.076641
   7 C :   -0.203510
   8 H :    0.121248
   9 H :    0.119411
  10 H :    0.117519
  11 H :    0.118421
  12 H :    0.115129
  13 H :    0.118750
  14 H :    0.121025
  15 H :    0.134408
  16 H :    0.130311
  17 H :    0.118839
  18 H :    0.120101
  19 H :    0.120000

  Mayer bond orders larger than 0.100000
B(  0-C ,  1-C ) :   1.1521 B(  0-C ,  8-H ) :   0.9515 B(  0-C ,  9-H ) :   0.9544
B(  0-C , 10-H ) :   0.9517 B(  1-C ,  2-C ) :   1.1258 B(  1-C , 11-H ) :   0.9252
B(  1-C , 12-H ) :   0.9241 B(  2-C ,  3-C ) :   1.1265 B(  2-C , 13-H ) :   0.9219
B(  2-C , 14-H ) :   0.9212 B(  3-C ,  4-C ) :   1.0287 B(  3-C , 15-H ) :   0.8954
B(  3-C , 16-H ) :   0.8981 B(  4-C ,  5-O ) :   2.0596 B(  4-C ,  6-O ) :   1.2061
B(  6-O ,  7-C ) :   0.9402 B(  7-C , 17-H ) :   0.9537 B(  7-C , 18-H ) :   0.9501
B(  7-C , 19-H ) :   0.9591

Dispersion correction           -0.014924317
FINAL SINGLE POINT ENERGY      -385.451770638782

DIPOLE MOMENT
-------------

Method             : SCF
Type of density    : Electron Density
Multiplicity       :   1
Irrep              :   0
Energy             :  -385.5265890645516151 Eh
Relativity type    :
Basis              : AO
                                X                 Y                 Z
Electronic contribution:      8.696056136       0.652868066      -2.014561414
Nuclear contribution   :     -8.714643805      -1.060326496       2.640028300
                        -----------------------------------------
Total Dipole Moment    :     -0.018587669      -0.407458430       0.625466886
                        -----------------------------------------
Magnitude (a.u.)       :      0.746710586
Magnitude (Debye)      :      1.897987474

Rotational constants in cm-1:             0.178361             0.028969             0.026744
Rotational constants in MHz :          5347.114238           868.454984           801.752821

                             ****ORCA TERMINATED NORMALLY****
TOTAL RUN TIME: 0 days 0 hours 0 minutes 9 seconds 619 msec
