                         Program Version 6.0.0  -   RELEASE  -
|  1> ! r2scan-3c def2/J RI DEFGRID2 scfconv6 printgap
|  2> %output
|  3>     printlevel normal
|  4> end
|  5> * xyz 0 1
|  6> C -2.643277058 -1.2274327603 -0.3410678049
|  7> C -2.5738223826 0.2203165669 0.1295991104
|  8> C -1.2563473584 0.5150212131 0.8498268712
|  9> C -0.0860584061 0.4752828456 -0.0994864604
| 10> O -0.0710801072 0.9632236706 -1.2110758592
| 11> O 0.9537946677 -0.1500079044 0.435399848
| 12> C 2.1702705326 -0.2314834722 -0.3271049883
| 13> C 3.3183069251 -0.4892290704 0.630296914
| 14> H -2.5470199324 -1.9089549531 0.5007971469
| 15> H -3.5912544942 -1.4198228682 -0.8360965397
| 16> H -1.8409274398 -1.4341884741 -1.0469559906
| 17> H -3.4018518819 0.4254039505 0.8084416806
| 18> H -2.6578909755 0.8883594558 -0.7295614897
| 19> H -1.0742779785 -0.1967891706 1.6542899855
| 20> H -1.2878322103 1.5220292153 1.271278364
| 21> H 2.0622119529 -1.0456090139 -1.0508718057
| 22> H 2.2976766058 0.7059451482 -0.8783925164
| 23> H 4.2433008399 -0.5670560281 0.068724058
| 24> H 3.4000478186 0.3251011402 1.3442870668
| 25> H 3.1477034322 -1.4144257738 1.1723856361
| 26> *
| 27>
| 28>                          ****END OF INPUT****

CARTESIAN COORDINATES (ANGSTROEM)
---------------------------------
  C     -2.643277   -1.227433   -0.341068
  C     -2.573822    0.220317    0.129599
  C     -1.256347    0.515021    0.849827
  C     -0.086058    0.475283   -0.099486
  O     -0.071080    0.963224   -1.211076
  O      0.953795   -0.150008    0.435400
  C      2.170271   -0.231483   -0.327105
  C      3.318307   -0.489229    0.630297
  H     -2.547020   -1.908955    0.500797
  H     -3.591254   -1.419823   -0.836097
  H     -1.840927   -1.434188   -1.046956
  H     -3.401852    0.425404    0.808442
  H     -2.657891    0.888359   -0.729561
  H     -1.074278   -0.196789    1.654290
  H     -1.287832    1.522029    1.271278
  H      2.062212   -1.045609   -1.050872
  H      2.297677    0.705945   -0.878393
  H      4.243301   -0.567056    0.068724
  H      3.400048    0.325101    1.344287
  H      3.147703   -1.414426    1.172386

 Total Charge           Charge          ....    0
 Multiplicity           Mult            ....    1
 Number of Electrons    NEL             ....   64
 Basis Dimension        Dim             ....  222

ORBITAL ENERGIES
----------------

  NO   OCC          E(Eh)            E(eV)
   0   2.0000     -18.996802      -516.9293
   1   2.0000     -18.926991      -515.0296
   2   2.0000     -10.150973      -276.2220
   3   2.0000     -10.090972      -274.5893
   4   2.0000     -10.040504      -273.2160
   5   2.0000     -10.032116      -272.9877
   6   2.0000     -10.031462      -272.9700
   7   2.0000     -10.017634      -272.5937
   8   2.0000      -1.071305       -29.1517
   9   2.0000      -0.974417       -26.5152
  10   2.0000      -0.772246       -21.0139
  11   2.0000      -0.742878       -20.2147
  12   2.0000      -0.677465       -18.4348
  13   2.0000      -0.617841       -16.8123
  14   2.0000      -0.564201       -15.3527
  15   2.0000      -0.528041       -14.3687
  16   2.0000      -0.472084       -12.8461
  17   2.0000      -0.462606       -12.5882
  18   2.0000      -0.431302       -11.7363
  19   2.0000      -0.429013       -11.6740
  20   2.0000      -0.407558       -11.0902
  21   2.0000      -0.379981       -10.3398
  22   2.0000      -0.377855       -10.2820
  23   2.0000      -0.365429        -9.9438
  24   2.0000      -0.361108        -9.8262
  25   2.0000      -0.335258        -9.1228
  26   2.0000      -0.320478        -8.7207
  27   2.0000      -0.308831        -8.4037
  28   2.0000      -0.307283        -8.3616
  29   2.0000      -0.305097        -8.3021
  30   2.0000      -0.271589        -7.3903
  31   2.0000      -0.235171        -6.3993
  32   0.0000      -0.014440        -0.3929
  33   0.0000       0.074631         2.0308
  34   0.0000       0.095898         2.6095
  35   0.0000       0.104661         2.8480
  36   0.0000       0.124343         3.3836

MULLIKEN ATOMIC CHARGES
-----------------------
   0 C :   -0.496796
   1 C :   -0.207129
   2 C :   -0.296546
   3 C :    0.332141
   4 O :   -0.426232
   5 O :   -0.162288
   6 C :   -0.154510
   7 C :   -0.441440
   8 H :    0.143616
   9 H :    0.148042
  10 H :    0.157847
  11 H :    0.142399
  12 H :    0.159742
  13 H :    0.164438
  14 H :    0.166790
  15 H :    0.147672
  16 H :    0.170836
  17 H :    0.146938
  18 H :    0.152494
  19 H :    0.151987
Sum of atomic charges:    0.0000000

LOEWDIN ATOMIC CHARGES
----------------------
   0 C :   -0.417062
   1 C :   -0.296137
   2 C :   -0.232944
   3 C :    0.355035
   4 O :   -0.436961
   5 O :   -0.597918
   6 C :    0.032623
   7 C :   -0.386830
   8 H :    0.149415
   9 H :    0.152847
  10 H :    0.156627
  11 H :    0.152420
  12 H :    0.168998
  13 H :    0.177738
  14 H :    0.182719
  15 H :    0.175419
  16 H :    0.186717
  17 H :    0.159336
  18 H :    0.159044
  19 H :    0.158913

  Mayer bond orders larger than 0.100000
B(  0-C ,  1-C ) :   0.9083 B(  0-C ,  8-H ) :   0.9824 B(  0-C ,  9-H ) :   0.9689
B(  0-C , 10-H ) :   0.9746 B(  1-C ,  2-C ) :   0.8969 B(  1-C , 11-H ) :   0.9649
B(  1-C , 12-H ) :   0.9627 B(  2-C ,  3-C ) :   0.9485 B(  2-C , 13-H ) :   1.0019
B(  2-C , 14-H ) :   0.9262 B(  3-C ,  4-O ) :   1.8271 B(  3-C ,  5-O ) :   1.0777
B(  5-O ,  6-C ) :   0.7934 B(  6-C ,  7-C ) :   0.9450 B(  6-C , 15-H ) :   0.9459
B(  6-C , 16-H ) :   0.9625 B(  7-C , 17-H ) :   0.9679 B(  7-C , 18-H ) :   0.9748
B(  7-C , 19-H ) :   0.9689

Dispersion correction           -0.004988957
FINAL SINGLE POINT ENERGY      -386.236370490859

DIPOLE MOMENT
-------------

Method             : SCF
Type of density    : Electron Density
Multiplicity       :   1
Irrep              :   0
Energy             :  -386.2430877569178733 Eh
Relativity type    :
Basis              : AO
                                X                 Y                 Z
Electronic contribution:      1.462044291       3.487580515      -1.496660929
Nuclear contribution   :     -1.159726532      -3.853195216       2.125947350
                        -----------------------------------------
Total Dipole Moment    :      0.302317758      -0.365614702       0.629286421
                        -----------------------------------------
Magnitude (a.u.)       :      0.788080920
Magnitude (Debye)      :      2.003142507

Rotational constants in cm-1:             0.149276             0.031954             0.030773
Rotational constants in MHz :          4475.178163           957.945125           922.551427

                             ****ORCA TERMINATED NORMALLY****
TOTAL RUN TIME: 0 days 0 hours 0 minutes 33 seconds 563 msec
