                         Program Version 6.0.0  -   RELEASE  -
|  1> ! r2scan-3c def2/J RI DEFGRID2 scfconv6 printgap
|  2> %output
|  3>     printlevel normal
|  4> end
|  5> %cpcm
|  6>     smd true
|  7>     smdsolvent "water"
|  8> end
|  9> * xyz 0 1
| 10> C -2.643277058 -1.2274327603 -0.3410678049
| 11> C -2.5738223826 0.2203165669 0.1295991104
| 12> C -1.2563473584 0.5150212131 0.8498268712
| 13> C -0.0860584061 0.4752828456 -0.0994864604
| 14> O -0.0710801072 0.9632236706 -1.2110758592
| 15> O 0.9537946677 -0.1500079044 0.435399848
| 16> C 2.1702705326 -0.2314834722 -0.3271049883
| 17> C 3.3183069251 -0.4892290704 0.630296914
| 18> H -2.5470199324 -1.9089549531 0.5007971469
| 19> H -3.5912544942 -1.4198228682 -0.8360965397
| 20> H -1.8409274398 -1.4341884741 -1.0469559906
| 21> H -3.4018518819 0.4254039505 0.8084416806
| 22> H -2.6578909755 0.8883594558 -0.7295614897
| 23> H -1.0742779785 -0.1967891706 1.6542899855
| 24> H -1.2878322103 1.5220292153 1.271278364
| 25> H 2.0622119529 -1.0456090139 -1.0508718057
| 26> H 2.2976766058 0.7059451482 -0.8783925164
| 27> H 4.2433008399 -0.5670560281 0.068724058
| 28> H 3.4000478186 0.3251011402 1.3442870668
| 29> H 3.1477034322 -1.4144257738 1.1723856361
| 30> *
| 31>
| 32>                          ****END OF INPUT****

CARTESIAN COORDINATES (ANGSTROEM)
---------------------------------
  C     -2.643277   -1.227433   -0.341068
  C     -2.573822    0.220317    0.129599
  C     -1.256347    0.515021    0.849827
  C     -0.086058    0.475283   -0.099486
  O     -0.071080    0.963224   -1.211076
  O      0.953795   -0.150008    0.435400
  C      2.170271   -0.231483   -0.327105
  C      3.318307   -0.489229    0.630297
  H     -2.547020   -1.908955    0.500797
  H     -3.591254   -1.419823   -0.836097
  H     -1.840927   -1.434188   -1.046956
  H     -3.401852    0.425404    0.808442
  H     -2.657891    0.888359   -0.729561
  H     -1.074278   -0.196789    1.654290
  H     -1.287832    1.522029    1.271278
  H      2.062212   -1.045609   -1.050872
  H      2.297677    0.705945   -0.878393
  H      4.243301   -0.567056    0.068724
  H      3.400048    0.325101    1.344287
  H      3.147703   -1.414426    1.172386

 Total Charge           Charge          ....    0
 Multiplicity           Mult            ....    1
 Number of Electrons    NEL             ....   64
 Basis Dimension        Dim             ....  222

ORBITAL ENERGIES
----------------

  NO   OCC          E(Eh)            E(eV)
   0   2.0000     -19.002799      -517.0925
   1   2.0000     -18.943309      -515.4736
   2   2.0000     -10.162113      -276.5251
   3   2.0000     -10.083324      -274.3812
   4   2.0000     -10.035251      -273.0731
   5   2.0000     -10.026555      -272.8364
   6   2.0000     -10.018704      -272.6228
   7   2.0000     -10.010980      -272.4126
   8   2.0000      -1.079019       -29.3616
   9   2.0000      -0.988513       -26.8988
  10   2.0000      -0.768643       -20.9158
  11   2.0000      -0.735658       -20.0183
  12   2.0000      -0.672252       -18.2929
  13   2.0000      -0.611716       -16.6456
  14   2.0000      -0.558493       -15.1974
  15   2.0000      -0.527371       -14.3505
  16   2.0000      -0.473441       -12.8830
  17   2.0000      -0.464334       -12.6352
  18   2.0000      -0.442436       -12.0393
  19   2.0000      -0.422515       -11.4972
  20   2.0000      -0.405674       -11.0389
  21   2.0000      -0.376836       -10.2542
  22   2.0000      -0.368635       -10.0311
  23   2.0000      -0.361630        -9.8404
  24   2.0000      -0.355427        -9.6717
  25   2.0000      -0.331219        -9.0129
  26   2.0000      -0.316800        -8.6206
  27   2.0000      -0.305211        -8.3052
  28   2.0000      -0.303247        -8.2518
  29   2.0000      -0.302466        -8.2305
  30   2.0000      -0.277969        -7.5639
  31   2.0000      -0.251952        -6.8560
  32   0.0000      -0.022702        -0.6178
  33   0.0000       0.077063         2.0970
  34   0.0000       0.102957         2.8016
  35   0.0000       0.115524         3.1436
  36   0.0000       0.131180         3.5696

MULLIKEN ATOMIC CHARGES
-----------------------
   0 C :   -0.527979
   1 C :   -0.220817
   2 C :   -0.308927
   3 C :    0.375466
   4 O :   -0.512220
   5 O :   -0.180795
   6 C :   -0.154214
   7 C :   -0.488338
   8 H :    0.160168
   9 H :    0.160581
  10 H :    0.160718
  11 H :    0.161860
  12 H :    0.151480
  13 H :    0.180424
  14 H :    0.198047
  15 H :    0.172736
  16 H :    0.173354
  17 H :    0.168643
  18 H :    0.165568
  19 H :    0.164246
Sum of atomic charges:    0.0000000

LOEWDIN ATOMIC CHARGES
----------------------
   0 C :   -0.423826
   1 C :   -0.295965
   2 C :   -0.229586
   3 C :    0.365527
   4 O :   -0.497887
   5 O :   -0.599783
   6 C :    0.035663
   7 C :   -0.389920
   8 H :    0.155310
   9 H :    0.155820
  10 H :    0.156001
  11 H :    0.160067
  12 H :    0.164028
  13 H :    0.185680
  14 H :    0.194061
  15 H :    0.184076
  16 H :    0.188221
  17 H :    0.168080
  18 H :    0.162175
  19 H :    0.162258

  Mayer bond orders larger than 0.100000
B(  0-C ,  1-C ) :   0.9059 B(  0-C ,  8-H ) :   0.9781 B(  0-C ,  9-H ) :   0.9665
B(  0-C , 10-H ) :   0.9724 B(  1-C ,  2-C ) :   0.8812 B(  1-C , 11-H ) :   0.9606
B(  1-C , 12-H ) :   0.9688 B(  2-C ,  3-C ) :   0.9522 B(  2-C , 13-H ) :   0.9909
B(  2-C , 14-H ) :   0.9184 B(  3-C ,  4-O ) :   1.7582 B(  3-C ,  5-O ) :   1.1029
B(  5-O ,  6-C ) :   0.7808 B(  6-C ,  7-C ) :   0.9432 B(  6-C , 15-H ) :   0.9369
B(  6-C , 16-H ) :   0.9573 B(  7-C , 17-H ) :   0.9614 B(  7-C , 18-H ) :   0.9734
B(  7-C , 19-H ) :   0.9661

Dispersion correction           -0.004988957
FINAL SINGLE POINT ENERGY      -386.241646755063

DIPOLE MOMENT
-------------

Method             : SCF
Type of density    : Electron Density
Multiplicity       :   1
Irrep              :   0
Energy             :  -386.2483640211215743 Eh
Relativity type    :
Basis              : AO
                                X                 Y                 Z
Electronic contribution:      1.542748759       3.335111737      -1.181965290
Nuclear contribution   :     -1.159726532      -3.853195216       2.125947350
                        -----------------------------------------
Total Dipole Moment    :      0.383022227      -0.518083479       0.943982059
                        -----------------------------------------
Magnitude (a.u.)       :      1.142899228
Magnitude (Debye)      :      2.905018973

Rotational constants in cm-1:             0.149276             0.031954             0.030773
Rotational constants in MHz :          4475.178163           957.945125           922.551427

                             ****ORCA TERMINATED NORMALLY****
TOTAL RUN TIME: 0 days 0 hours 0 minutes 38 seconds 465 msec
