                         Program Version 6.0.0  -   RELEASE  -
|  1> ! pbe def2-sv(p) def2/J RI DEFGRID1 loosescf d4 GCP(DFT/SV(P)) printgap
|  2> %output
|  3>     printlevel normal
|  4> end
|  5> * xyz 0 1
|  6> C -3.4173483217 -0.9831072799 0.3283654332
|  7> C -2.0752521414 -0.3183532558 0.6062768779
|  8> C -1.2946052342 -0.0800628589 -0.695338139
|  9> C 0.0094971251 0.5962690505 -0.371861998
| 10> O 0.1832632378 1.7984001102 -0.3474219027
| 11> O 0.9556646442 -0.2819296142 -0.0753567844
| 12> C 2.2512190869 0.2146690354 0.3018497833
| 13> C 3.2426267371 -0.9296834101 0.2136396485
| 14> H -3.9552734139 -1.1427964785 1.2587335435
| 15> H -4.025923212 -0.3570640476 -0.3189073434
| 16> H -3.2723002228 -1.9444679818 -0.1572632237
| 17> H -1.4791475157 -0.9511868735 1.2664153395
| 18> H -2.2321248441 0.6399871455 1.105988906
| 19> H -1.8700580196 0.566752022 -1.3569129096
| 20> H -1.0913896382 -1.0337214417 -1.1805347437
| 21> H 2.5148433867 1.0393150327 -0.3684930314
| 22> H 2.1816734347 0.6095348529 1.3205674043
| 23> H 3.2903464198 -1.304888238 -0.8044588616
| 24> H 4.2245920447 -0.5778528438 0.5119202976
| 25> H 2.9350341405 -1.7375693538 0.8707904483
| 26> *
| 27>
| 28>                          ****END OF INPUT****

CARTESIAN COORDINATES (ANGSTROEM)
---------------------------------
  C     -3.417348   -0.983107    0.328365
  C     -2.075252   -0.318353    0.606277
  C     -1.294605   -0.080063   -0.695338
  C      0.009497    0.596269   -0.371862
  O      0.183263    1.798400   -0.347422
  O      0.955665   -0.281930   -0.075357
  C      2.251219    0.214669    0.301850
  C      3.242627   -0.929683    0.213640
  H     -3.955273   -1.142796    1.258734
  H     -4.025923   -0.357064   -0.318907
  H     -3.272300   -1.944468   -0.157263
  H     -1.479148   -0.951187    1.266415
  H     -2.232125    0.639987    1.105989
  H     -1.870058    0.566752   -1.356913
  H     -1.091390   -1.033721   -1.180535
  H      2.514843    1.039315   -0.368493
  H      2.181673    0.609535    1.320567
  H      3.290346   -1.304888   -0.804459
  H      4.224592   -0.577853    0.511920
  H      2.935034   -1.737569    0.870790

 Total Charge           Charge          ....    0
 Multiplicity           Mult            ....    1
 Number of Electrons    NEL             ....   64
 Basis Dimension        Dim             ....  136

ORBITAL ENERGIES
----------------

  NO   OCC          E(Eh)            E(eV)
   0   2.0000     -18.795036      -511.4389
   1   2.0000     -18.729157      -509.6463
   2   2.0000      -9.999268      -272.0939
   3   2.0000      -9.944770      -270.6110
   4   2.0000      -9.895672      -269.2749
   5   2.0000      -9.893735      -269.2222
   6   2.0000      -9.888204      -269.0717
   7   2.0000      -9.880064      -268.8502
   8   2.0000      -1.001980       -27.2653
   9   2.0000      -0.904290       -24.6070
  10   2.0000      -0.729269       -19.8444
  11   2.0000      -0.699283       -19.0285
  12   2.0000      -0.639034       -17.3890
  13   2.0000      -0.579333       -15.7644
  14   2.0000      -0.533695       -14.5226
  15   2.0000      -0.506083       -13.7712
  16   2.0000      -0.448095       -12.1933
  17   2.0000      -0.435835       -11.8597
  18   2.0000      -0.425235       -11.5712
  19   2.0000      -0.396767       -10.7966
  20   2.0000      -0.388855       -10.5813
  21   2.0000      -0.368593       -10.0299
  22   2.0000      -0.360640        -9.8135
  23   2.0000      -0.346591        -9.4312
  24   2.0000      -0.342758        -9.3269
  25   2.0000      -0.329284        -8.9603
  26   2.0000      -0.314150        -8.5485
  27   2.0000      -0.298420        -8.1204
  28   2.0000      -0.297707        -8.1010
  29   2.0000      -0.291743        -7.9387
  30   2.0000      -0.253503        -6.8982
  31   2.0000      -0.211937        -5.7671
  32   0.0000      -0.015923        -0.4333
  33   0.0000       0.038769         1.0550
  34   0.0000       0.047936         1.3044
  35   0.0000       0.077020         2.0958
  36   0.0000       0.078884         2.1465

MULLIKEN ATOMIC CHARGES
-----------------------
   0 C :   -0.242576
   1 C :   -0.241071
   2 C :   -0.113222
   3 C :    0.110165
   4 O :   -0.216626
   5 O :   -0.244993
   6 C :   -0.027383
   7 C :   -0.274648
   8 H :    0.107171
   9 H :    0.101425
  10 H :    0.098984
  11 H :    0.097214
  12 H :    0.103963
  13 H :    0.098147
  14 H :    0.092853
  15 H :    0.109562
  16 H :    0.102375
  17 H :    0.114462
  18 H :    0.110967
  19 H :    0.113232
Sum of atomic charges:    0.0000000

LOEWDIN ATOMIC CHARGES
----------------------
   0 C :   -0.339095
   1 C :   -0.225092
   2 C :   -0.241970
   3 C :    0.034738
   4 O :   -0.174387
   5 O :   -0.071799
   6 C :   -0.109197
   7 C :   -0.350957
   8 H :    0.121865
   9 H :    0.119406
  10 H :    0.118273
  11 H :    0.118329
  12 H :    0.122279
  13 H :    0.133637
  14 H :    0.129155
  15 H :    0.117725
  16 H :    0.115026
  17 H :    0.126307
  18 H :    0.130010
  19 H :    0.125748

  Mayer bond orders larger than 0.100000
B(  0-C ,  1-C ) :   1.1577 B(  0-C ,  8-H ) :   0.9516 B(  0-C ,  9-H ) :   0.9533
B(  0-C , 10-H ) :   0.9533 B(  1-C ,  2-C ) :   1.1303 B(  1-C , 11-H ) :   0.9269
B(  1-C , 12-H ) :   0.9266 B(  2-C ,  3-C ) :   1.0303 B(  2-C , 13-H ) :   0.9024
B(  2-C , 14-H ) :   0.8997 B(  3-C ,  4-O ) :   2.0526 B(  3-C ,  5-O ) :   1.2031
B(  5-O ,  6-C ) :   0.9117 B(  6-C ,  7-C ) :   1.1517 B(  6-C , 15-H ) :   0.9241
B(  6-C , 16-H ) :   0.9353 B(  7-C , 17-H ) :   0.9517 B(  7-C , 18-H ) :   0.9447
B(  7-C , 19-H ) :   0.9486

Dispersion correction           -0.014351545
FINAL SINGLE POINT ENERGY      -385.457230570741

DIPOLE MOMENT
-------------

Method             : SCF
Type of density    : Electron Density
Multiplicity       :   1
Irrep              :   0
Energy             :  -385.5321704556390046 Eh
Relativity type    :
Basis              : AO
                                X                 Y                 Z
Electronic contribution:      2.776029813       5.027368236      -1.840803812
Nuclear contribution   :     -2.590959503      -5.788478845       2.008768395
                        -----------------------------------------
Total Dipole Moment    :      0.185070310      -0.761110608       0.167964583
                        -----------------------------------------
Magnitude (a.u.)       :      0.801094551
Magnitude (Debye)      :      2.036220527

Rotational constants in cm-1:             0.137677             0.031113             0.027204
Rotational constants in MHz :          4127.445186           932.751011           815.546882

                             ****ORCA TERMINATED NORMALLY****
TOTAL RUN TIME: 0 days 0 hours 0 minutes 10 seconds 407 msec
