                         Program Version 6.0.0  -   RELEASE  -
|  1> ! pbe def2-sv(p) def2/J RI DEFGRID1 loosescf d4 GCP(DFT/SV(P)) printgap
|  2> %output
|  3>     printlevel normal
|  4> end
|  5> * xyz 0 1
|  6> C -3.4295532005 0.6351266858 0.3265700233
|  7> C -2.7390884331 -0.7043971193 0.0972601264
|  8> C -1.3299546451 -0.5665908675 -0.4783248787
|  9> C -0.3456694716 0.0673789588 0.5097298976
| 10> C 1.0143863251 0.2174605388 -0.1154705546
| 11> O 1.2343919331 0.7042204039 -1.2048512341
| 12> O 1.9749302652 -0.2519239319 0.6747632166
| 13> C 3.3230759655 -0.1630167682 0.2048550279
| 14> H -4.459345309 0.4766986218 0.6367494939
| 15> H -2.9293024964 1.2086315856 1.1022122909
| 16> H -3.4330116218 1.221562964 -0.5894516249
| 17> H -2.6916503785 -1.2567838502 1.0375330949
| 18> H -3.3348353443 -1.2922836207 -0.603505386
| 19> H -1.3552650184 0.0419365489 -1.3844875637
| 20> H -0.9601146787 -1.5563325124 -0.7548748346
| 21> H -0.2521969087 -0.5311264373 1.4150872389
| 22> H -0.6916499378 1.0676734073 0.7752741131
| 23> H 3.559907359 0.8690822508 -0.0558769073
| 24> H 3.4499908309 -0.7900374878 -0.6782978443
| 25> H 3.9427823399 -0.5130495376 1.0240984004
| 26> *
| 27>
| 28>                          ****END OF INPUT****

CARTESIAN COORDINATES (ANGSTROEM)
---------------------------------
  C     -3.429553    0.635127    0.326570
  C     -2.739088   -0.704397    0.097260
  C     -1.329955   -0.566591   -0.478325
  C     -0.345669    0.067379    0.509730
  C      1.014386    0.217461   -0.115471
  O      1.234392    0.704220   -1.204851
  O      1.974930   -0.251924    0.674763
  C      3.323076   -0.163017    0.204855
  H     -4.459345    0.476699    0.636749
  H     -2.929302    1.208632    1.102212
  H     -3.433012    1.221563   -0.589452
  H     -2.691650   -1.256784    1.037533
  H     -3.334835   -1.292284   -0.603505
  H     -1.355265    0.041937   -1.384488
  H     -0.960115   -1.556333   -0.754875
  H     -0.252197   -0.531126    1.415087
  H     -0.691650    1.067673    0.775274
  H      3.559907    0.869082   -0.055877
  H      3.449991   -0.790037   -0.678298
  H      3.942782   -0.513050    1.024098

 Total Charge           Charge          ....    0
 Multiplicity           Mult            ....    1
 Number of Electrons    NEL             ....   64
 Basis Dimension        Dim             ....  136

ORBITAL ENERGIES
----------------

  NO   OCC          E(Eh)            E(eV)
   0   2.0000     -18.797980      -511.5190
   1   2.0000     -18.731764      -509.7172
   2   2.0000     -10.001655      -272.1589
   3   2.0000      -9.939664      -270.4720
   4   2.0000      -9.894903      -269.2540
   5   2.0000      -9.888525      -269.0805
   6   2.0000      -9.886659      -269.0297
   7   2.0000      -9.876079      -268.7418
   8   2.0000      -1.003524       -27.3073
   9   2.0000      -0.907146       -24.6847
  10   2.0000      -0.730436       -19.8762
  11   2.0000      -0.684720       -18.6322
  12   2.0000      -0.644049       -17.5255
  13   2.0000      -0.584865       -15.9150
  14   2.0000      -0.518263       -14.1027
  15   2.0000      -0.499270       -13.5858
  16   2.0000      -0.450090       -12.2476
  17   2.0000      -0.438784       -11.9399
  18   2.0000      -0.419018       -11.4020
  19   2.0000      -0.408591       -11.1183
  20   2.0000      -0.396069       -10.7776
  21   2.0000      -0.372698       -10.1416
  22   2.0000      -0.365175        -9.9369
  23   2.0000      -0.353085        -9.6079
  24   2.0000      -0.329221        -8.9586
  25   2.0000      -0.323643        -8.8068
  26   2.0000      -0.305563        -8.3148
  27   2.0000      -0.290232        -7.8976
  28   2.0000      -0.287851        -7.8328
  29   2.0000      -0.284287        -7.7359
  30   2.0000      -0.256761        -6.9868
  31   2.0000      -0.216911        -5.9025
  32   0.0000      -0.017790        -0.4841
  33   0.0000       0.038469         1.0468
  34   0.0000       0.057809         1.5731
  35   0.0000       0.066525         1.8102
  36   0.0000       0.072435         1.9711

MULLIKEN ATOMIC CHARGES
-----------------------
   0 C :   -0.298735
   1 C :   -0.146381
   2 C :   -0.201024
   3 C :   -0.152268
   4 C :    0.108541
   5 O :   -0.213813
   6 O :   -0.235880
   7 C :   -0.109549
   8 H :    0.105034
   9 H :    0.107973
  10 H :    0.103426
  11 H :    0.081422
  12 H :    0.088245
  13 H :    0.104412
  14 H :    0.089969
  15 H :    0.092608
  16 H :    0.116625
  17 H :    0.119620
  18 H :    0.118785
  19 H :    0.120990
Sum of atomic charges:    0.0000000

LOEWDIN ATOMIC CHARGES
----------------------
   0 C :   -0.343550
   1 C :   -0.233620
   2 C :   -0.220581
   3 C :   -0.248159
   4 C :    0.036474
   5 O :   -0.171851
   6 O :   -0.074677
   7 C :   -0.204388
   8 H :    0.121125
   9 H :    0.115970
  10 H :    0.119554
  11 H :    0.114055
  12 H :    0.118401
  13 H :    0.123259
  14 H :    0.118590
  15 H :    0.128212
  16 H :    0.141401
  17 H :    0.119995
  18 H :    0.119513
  19 H :    0.120275

  Mayer bond orders larger than 0.100000
B(  0-C ,  1-C ) :   1.1541 B(  0-C ,  8-H ) :   0.9513 B(  0-C ,  9-H ) :   0.9506
B(  0-C , 10-H ) :   0.9546 B(  1-C ,  2-C ) :   1.1269 B(  1-C , 11-H ) :   0.9228
B(  1-C , 12-H ) :   0.9265 B(  2-C ,  3-C ) :   1.1233 B(  2-C , 13-H ) :   0.9152
B(  2-C , 14-H ) :   0.9274 B(  3-C ,  4-C ) :   1.0259 B(  3-C , 15-H ) :   0.9077
B(  3-C , 16-H ) :   0.8825 B(  4-C ,  5-O ) :   2.0498 B(  4-C ,  6-O ) :   1.2268
B(  6-O ,  7-C ) :   0.9391 B(  7-C , 17-H ) :   0.9496 B(  7-C , 18-H ) :   0.9541
B(  7-C , 19-H ) :   0.9594

Dispersion correction           -0.014799022
FINAL SINGLE POINT ENERGY      -385.452621385058

DIPOLE MOMENT
-------------

Method             : SCF
Type of density    : Electron Density
Multiplicity       :   1
Irrep              :   0
Energy             :  -385.5275894812455704 Eh
Relativity type    :
Basis              : AO
                                X                 Y                 Z
Electronic contribution:      8.659846834       0.671730451      -1.229749108
Nuclear contribution   :     -8.541038023      -0.982147305       1.797604494
                        -----------------------------------------
Total Dipole Moment    :      0.118808812      -0.310416854       0.567855386
                        -----------------------------------------
Magnitude (a.u.)       :      0.657977125
Magnitude (Debye)      :      1.672444939

Rotational constants in cm-1:             0.198523             0.027204             0.026218
Rotational constants in MHz :          5951.566722           815.548811           785.992668

                             ****ORCA TERMINATED NORMALLY****
TOTAL RUN TIME: 0 days 0 hours 0 minutes 9 seconds 569 msec
