                         Program Version 6.0.0  -   RELEASE  -
|  1> ! pbe def2-sv(p) def2/J RI DEFGRID1 loosescf d4 GCP(DFT/SV(P)) printgap
|  2> %output
|  3>     printlevel normal
|  4> end
|  5> * xyz 0 1
|  6> C -3.6385185758 -0.6185266138 0.2375514181
|  7> C -2.3054495897 -0.3086111021 -0.4308431212
|  8> C -1.1983463514 -0.1031416377 0.6002116888
|  9> C 0.1062073482 0.3009524247 -0.0346700549
| 10> O 0.2344301347 0.7280116929 -1.1622966867
| 11> O 1.1187787885 0.1524090381 0.8146020449
| 12> C 2.4401788961 0.5065705881 0.3719752128
| 13> C 3.1035419681 -0.649926278 -0.3601489421
| 14> H -4.4092352757 -0.7708467987 -0.5128169572
| 15> H -3.5616114076 -1.5197309725 0.8406224613
| 16> H -3.9425697334 0.2029154892 0.8814321737
| 17> H -2.3910130203 0.592655138 -1.0405379977
| 18> H -2.0257001823 -1.1257538789 -1.0983956425
| 19> H -1.0289497765 -1.0050041227 1.1893884402
| 20> H -1.4767985932 0.6938366278 1.2943571698
| 21> H 2.3667893417 1.3826226118 -0.2795780391
| 22> H 2.9769673163 0.7578328906 1.2871343708
| 23> H 4.1202854818 -0.3747270748 -0.620636896
| 24> H 3.1208232404 -1.5329967246 0.2728074781
| 25> H 2.5547342642 -0.8769640235 -1.2714545087
| 26> *
| 27>
| 28>                          ****END OF INPUT****

CARTESIAN COORDINATES (ANGSTROEM)
---------------------------------
  C     -3.638519   -0.618527    0.237551
  C     -2.305450   -0.308611   -0.430843
  C     -1.198346   -0.103142    0.600212
  C      0.106207    0.300952   -0.034670
  O      0.234430    0.728012   -1.162297
  O      1.118779    0.152409    0.814602
  C      2.440179    0.506571    0.371975
  C      3.103542   -0.649926   -0.360149
  H     -4.409235   -0.770847   -0.512817
  H     -3.561611   -1.519731    0.840622
  H     -3.942570    0.202915    0.881432
  H     -2.391013    0.592655   -1.040538
  H     -2.025700   -1.125754   -1.098396
  H     -1.028950   -1.005004    1.189388
  H     -1.476799    0.693837    1.294357
  H      2.366789    1.382623   -0.279578
  H      2.976967    0.757833    1.287134
  H      4.120285   -0.374727   -0.620637
  H      3.120823   -1.532997    0.272807
  H      2.554734   -0.876964   -1.271455

 Total Charge           Charge          ....    0
 Multiplicity           Mult            ....    1
 Number of Electrons    NEL             ....   64
 Basis Dimension        Dim             ....  136

ORBITAL ENERGIES
----------------

  NO   OCC          E(Eh)            E(eV)
   0   2.0000     -18.795200      -511.4434
   1   2.0000     -18.732736      -509.7437
   2   2.0000     -10.005161      -272.2543
   3   2.0000      -9.945546      -270.6321
   4   2.0000      -9.897484      -269.3242
   5   2.0000      -9.886130      -269.0153
   6   2.0000      -9.885947      -269.0103
   7   2.0000      -9.876455      -268.7520
   8   2.0000      -1.002483       -27.2790
   9   2.0000      -0.909039       -24.7362
  10   2.0000      -0.725076       -19.7303
  11   2.0000      -0.696486       -18.9523
  12   2.0000      -0.638821       -17.3832
  13   2.0000      -0.587885       -15.9972
  14   2.0000      -0.528858       -14.3910
  15   2.0000      -0.491038       -13.3618
  16   2.0000      -0.452640       -12.3170
  17   2.0000      -0.437313       -11.8999
  18   2.0000      -0.420780       -11.4500
  19   2.0000      -0.399562       -10.8726
  20   2.0000      -0.391503       -10.6533
  21   2.0000      -0.372878       -10.1465
  22   2.0000      -0.359024        -9.7695
  23   2.0000      -0.350834        -9.5467
  24   2.0000      -0.336103        -9.1458
  25   2.0000      -0.324208        -8.8221
  26   2.0000      -0.309507        -8.4221
  27   2.0000      -0.299663        -8.1543
  28   2.0000      -0.291954        -7.9445
  29   2.0000      -0.287485        -7.8229
  30   2.0000      -0.254909        -6.9364
  31   2.0000      -0.218668        -5.9503
  32   0.0000      -0.018227        -0.4960
  33   0.0000       0.037115         1.0099
  34   0.0000       0.053792         1.4637
  35   0.0000       0.078309         2.1309
  36   0.0000       0.082142         2.2352

MULLIKEN ATOMIC CHARGES
-----------------------
   0 C :   -0.252933
   1 C :   -0.201654
   2 C :   -0.176656
   3 C :    0.131544
   4 O :   -0.209963
   5 O :   -0.241075
   6 C :   -0.009952
   7 C :   -0.304657
   8 H :    0.105377
   9 H :    0.095484
  10 H :    0.096007
  11 H :    0.103813
  12 H :    0.094160
  13 H :    0.103438
  14 H :    0.111242
  15 H :    0.105679
  16 H :    0.100297
  17 H :    0.111306
  18 H :    0.111946
  19 H :    0.126599
Sum of atomic charges:   -0.0000000

LOEWDIN ATOMIC CHARGES
----------------------
   0 C :   -0.339475
   1 C :   -0.230654
   2 C :   -0.250792
   3 C :    0.039713
   4 O :   -0.168082
   5 O :   -0.072281
   6 C :   -0.112719
   7 C :   -0.356649
   8 H :    0.120991
   9 H :    0.116174
  10 H :    0.116681
  11 H :    0.123562
  12 H :    0.119774
  13 H :    0.133839
  14 H :    0.141576
  15 H :    0.118385
  16 H :    0.116292
  17 H :    0.129738
  18 H :    0.123725
  19 H :    0.130203

  Mayer bond orders larger than 0.100000
B(  0-C ,  1-C ) :   1.1549 B(  0-C ,  8-H ) :   0.9540 B(  0-C ,  9-H ) :   0.9528
B(  0-C , 10-H ) :   0.9539 B(  1-C ,  2-C ) :   1.1307 B(  1-C , 11-H ) :   0.9216
B(  1-C , 12-H ) :   0.9321 B(  2-C ,  3-C ) :   1.0185 B(  2-C , 13-H ) :   0.9058
B(  2-C , 14-H ) :   0.8897 B(  3-C ,  4-O ) :   2.0370 B(  3-C ,  5-O ) :   1.2155
B(  5-O ,  6-C ) :   0.9239 B(  6-C ,  7-C ) :   1.1731 B(  6-C , 15-H ) :   0.9143
B(  6-C , 16-H ) :   0.9377 B(  7-C , 17-H ) :   0.9445 B(  7-C , 18-H ) :   0.9491
B(  7-C , 19-H ) :   0.9465

Dispersion correction           -0.014598335
FINAL SINGLE POINT ENERGY      -385.458891252375

DIPOLE MOMENT
-------------

Method             : SCF
Type of density    : Electron Density
Multiplicity       :   1
Irrep              :   0
Energy             :  -385.5341240675604126 Eh
Relativity type    :
Basis              : AO
                                X                 Y                 Z
Electronic contribution:      3.702542894       3.127871136      -0.317221448
Nuclear contribution   :     -3.447659645      -3.341979983       0.878899495
                        -----------------------------------------
Total Dipole Moment    :      0.254883249      -0.214108847       0.561678047
                        -----------------------------------------
Magnitude (a.u.)       :      0.652909104
Magnitude (Debye)      :      1.659563054

Rotational constants in cm-1:             0.194702             0.028480             0.027368
Rotational constants in MHz :          5837.025848           853.810663           820.457262

                             ****ORCA TERMINATED NORMALLY****
TOTAL RUN TIME: 0 days 0 hours 0 minutes 10 seconds 445 msec
