                         Program Version 6.0.0  -   RELEASE  -
|  1> ! pbe def2-sv(p) def2/J RI DEFGRID1 loosescf d4 GCP(DFT/SV(P)) printgap
|  2> %output
|  3>     printlevel normal
|  4> end
|  5> * xyz 0 1
|  6> C 1.9237544752 -0.7278447577 -0.1629099029
|  7> C 1.1272887924 0.3432959213 0.5739711482
|  8> C 0.0246794509 0.9709272735 -0.2818342748
|  9> C -1.1134370688 0.0068819826 -0.6564803776
| 10> N -1.8892419105 -0.5173010359 0.4567561182
| 11> H 2.7403155361 -1.0840724535 0.460739337
| 12> H 1.2963473162 -1.5781864076 -0.4175144713
| 13> H 2.3431275405 -0.3229555402 -1.0812136832
| 14> H 0.6927189761 -0.0857511374 1.4804977831
| 15> H 1.8090479628 1.1369779563 0.8888091373
| 16> H -0.4040196352 1.8178878268 0.2619498787
| 17> H 0.4639204446 1.3569762062 -1.2037160859
| 18> H -0.7136036365 -0.8455716867 -1.2096575062
| 19> H -1.8103174378 0.5326656237 -1.3160800056
| 20> H -1.2887145574 -1.0616725654 1.0667865154
| 21> H -2.2584665916 0.2527908962 1.0051018026
| 22> *
| 23>
| 24>                          ****END OF INPUT****

CARTESIAN COORDINATES (ANGSTROEM)
---------------------------------
  C      1.923754   -0.727845   -0.162910
  C      1.127289    0.343296    0.573971
  C      0.024679    0.970927   -0.281834
  C     -1.113437    0.006882   -0.656480
  N     -1.889242   -0.517301    0.456756
  H      2.740316   -1.084072    0.460739
  H      1.296347   -1.578186   -0.417514
  H      2.343128   -0.322956   -1.081214
  H      0.692719   -0.085751    1.480498
  H      1.809048    1.136978    0.888809
  H     -0.404020    1.817888    0.261950
  H      0.463920    1.356976   -1.203716
  H     -0.713604   -0.845572   -1.209658
  H     -1.810317    0.532666   -1.316080
  H     -1.288715   -1.061673    1.066787
  H     -2.258467    0.252791    1.005102

 Total Charge           Charge          ....    0
 Multiplicity           Mult            ....    1
 Number of Electrons    NEL             ....   42
 Basis Dimension        Dim             ....   92

ORBITAL ENERGIES
----------------

  NO   OCC          E(Eh)            E(eV)
   0   2.0000     -13.955315      -379.7434
   1   2.0000      -9.902341      -269.4564
   2   2.0000      -9.885453      -268.9969
   3   2.0000      -9.879621      -268.8381
   4   2.0000      -9.874939      -268.7108
   5   2.0000      -0.792876       -21.5753
   6   2.0000      -0.705529       -19.1984
   7   2.0000      -0.628980       -17.1154
   8   2.0000      -0.565043       -15.3756
   9   2.0000      -0.502170       -13.6647
  10   2.0000      -0.447667       -12.1817
  11   2.0000      -0.412442       -11.2231
  12   2.0000      -0.394302       -10.7295
  13   2.0000      -0.381790       -10.3890
  14   2.0000      -0.347166        -9.4469
  15   2.0000      -0.337477        -9.1832
  16   2.0000      -0.325389        -8.8543
  17   2.0000      -0.293050        -7.9743
  18   2.0000      -0.286927        -7.8077
  19   2.0000      -0.280057        -7.6207
  20   2.0000      -0.180515        -4.9121
  21   0.0000       0.024785         0.6744
  22   0.0000       0.058934         1.6037
  23   0.0000       0.061167         1.6644
  24   0.0000       0.075038         2.0419
  25   0.0000       0.098826         2.6892

MULLIKEN ATOMIC CHARGES
-----------------------
   0 C :   -0.289841
   1 C :   -0.188901
   2 C :   -0.167908
   3 C :   -0.095921
   4 N :   -0.449669
   5 H :    0.103932
   6 H :    0.105944
   7 H :    0.099782
   8 H :    0.066739
   9 H :    0.088385
  10 H :    0.073738
  11 H :    0.075150
  12 H :    0.091241
  13 H :    0.086496
  14 H :    0.203317
  15 H :    0.197516
Sum of atomic charges:    0.0000000

LOEWDIN ATOMIC CHARGES
----------------------
   0 C :   -0.343391
   1 C :   -0.240436
   2 C :   -0.251120
   3 C :   -0.183294
   4 N :   -0.405790
   5 H :    0.120189
   6 H :    0.115667
   7 H :    0.118179
   8 H :    0.102895
   9 H :    0.117463
  10 H :    0.109749
  11 H :    0.114857
  12 H :    0.111274
  13 H :    0.112397
  14 H :    0.200401
  15 H :    0.200958

  Mayer bond orders larger than 0.100000
B(  0-C ,  1-C ) :   1.1493 B(  0-C ,  5-H ) :   0.9515 B(  0-C ,  6-H ) :   0.9513
B(  0-C ,  7-H ) :   0.9547 B(  1-C ,  2-C ) :   1.1169 B(  1-C ,  8-H ) :   0.9166
B(  1-C ,  9-H ) :   0.9275 B(  2-C ,  3-C ) :   1.0838 B(  2-C , 10-H ) :   0.9203
B(  2-C , 11-H ) :   0.9086 B(  3-C ,  4-N ) :   1.1447 B(  3-C , 12-H ) :   0.9305
B(  3-C , 13-H ) :   0.9323 B(  4-N , 14-H ) :   0.9095 B(  4-N , 15-H ) :   0.9101

Dispersion correction           -0.010559198
FINAL SINGLE POINT ENERGY      -213.245350309988

DIPOLE MOMENT
-------------

Method             : SCF
Type of density    : Electron Density
Multiplicity       :   1
Irrep              :   0
Energy             :  -213.3056120253517634 Eh
Relativity type    :
Basis              : AO
                                X                 Y                 Z
Electronic contribution:     -2.316977617       0.173961069       0.307398640
Nuclear contribution   :      2.682536320       0.108897857      -0.057825448
                        -----------------------------------------
Total Dipole Moment    :      0.365558703       0.282858926       0.249573192
                        -----------------------------------------
Magnitude (a.u.)       :      0.525289554
Magnitude (Debye)      :      1.335179938

Rotational constants in cm-1:             0.280278             0.094622             0.088518
Rotational constants in MHz :          8402.509777          2836.691877          2653.706170

                             ****ORCA TERMINATED NORMALLY****
TOTAL RUN TIME: 0 days 0 hours 0 minutes 7 seconds 680 msec
