                         Program Version 6.0.0  -   RELEASE  -
|  1> ! pbe def2-sv(p) def2/J RI DEFGRID1 loosescf d4 GCP(DFT/SV(P)) printgap
|  2> %output
|  3>     printlevel normal
|  4> end
|  5> * xyz 0 1
|  6> C -2.5798088871 -0.5370280373 1.0905338408
|  7> C -2.0946463148 -0.8195930079 -0.3260988828
|  8> C -1.3700870032 0.3900241708 -0.9303064215
|  9> C -0.1030636049 0.6976223736 -0.1740573846
| 10> O 0.1100045846 1.7274126813 0.4343585645
| 11> O 0.766510083 -0.2983497368 -0.2533310148
| 12> C 2.0333769377 -0.1675769855 0.4119149222
| 13> C 3.0651134718 -0.9762206744 -0.3526897266
| 14> H -3.0804160234 -1.4093607295 1.5020468314
| 15> H -1.7444266949 -0.279745065 1.7394617543
| 16> H -3.2773573017 0.2972281663 1.0954950222
| 17> H -2.9473710426 -1.0648248213 -0.9599262715
| 18> H -1.4143186117 -1.6722399677 -0.3219643231
| 19> H -2.0069759903 1.273871543 -0.8992683837
| 20> H -1.0985290768 0.1701855736 -1.9631908645
| 21> H 2.2951474532 0.8946105285 0.4560293126
| 22> H 1.9145416553 -0.5411597283 1.4338969833
| 23> H 4.0214041961 -0.9093905867 0.1554905725
| 24> H 2.7568261209 -2.0162091442 -0.4032128871
| 25> H 3.1698435103 -0.5921008533 -1.3633830044
| 26> *
| 27>
| 28>                          ****END OF INPUT****

CARTESIAN COORDINATES (ANGSTROEM)
---------------------------------
  C     -2.579809   -0.537028    1.090534
  C     -2.094646   -0.819593   -0.326099
  C     -1.370087    0.390024   -0.930306
  C     -0.103064    0.697622   -0.174057
  O      0.110005    1.727413    0.434359
  O      0.766510   -0.298350   -0.253331
  C      2.033377   -0.167577    0.411915
  C      3.065113   -0.976221   -0.352690
  H     -3.080416   -1.409361    1.502047
  H     -1.744427   -0.279745    1.739462
  H     -3.277357    0.297228    1.095495
  H     -2.947371   -1.064825   -0.959926
  H     -1.414319   -1.672240   -0.321964
  H     -2.006976    1.273872   -0.899268
  H     -1.098529    0.170186   -1.963191
  H      2.295147    0.894611    0.456029
  H      1.914542   -0.541160    1.433897
  H      4.021404   -0.909391    0.155491
  H      2.756826   -2.016209   -0.403213
  H      3.169844   -0.592101   -1.363383

 Total Charge           Charge          ....    0
 Multiplicity           Mult            ....    1
 Number of Electrons    NEL             ....   64
 Basis Dimension        Dim             ....  136

ORBITAL ENERGIES
----------------

  NO   OCC          E(Eh)            E(eV)
   0   2.0000     -18.797486      -511.5056
   1   2.0000     -18.728797      -509.6365
   2   2.0000     -10.003625      -272.2125
   3   2.0000      -9.946576      -270.6601
   4   2.0000      -9.895816      -269.2788
   5   2.0000      -9.893599      -269.2185
   6   2.0000      -9.889829      -269.1159
   7   2.0000      -9.877269      -268.7742
   8   2.0000      -1.004138       -27.3240
   9   2.0000      -0.905906       -24.6510
  10   2.0000      -0.730683       -19.8829
  11   2.0000      -0.698293       -19.0015
  12   2.0000      -0.636437       -17.3183
  13   2.0000      -0.583063       -15.8659
  14   2.0000      -0.535257       -14.5651
  15   2.0000      -0.506125       -13.7724
  16   2.0000      -0.454317       -12.3626
  17   2.0000      -0.429133       -11.6773
  18   2.0000      -0.418023       -11.3750
  19   2.0000      -0.402496       -10.9525
  20   2.0000      -0.391472       -10.6525
  21   2.0000      -0.367549       -10.0015
  22   2.0000      -0.360084        -9.7984
  23   2.0000      -0.353982        -9.6324
  24   2.0000      -0.342365        -9.3162
  25   2.0000      -0.324668        -8.8347
  26   2.0000      -0.311740        -8.4829
  27   2.0000      -0.299508        -8.1500
  28   2.0000      -0.297578        -8.0975
  29   2.0000      -0.291867        -7.9421
  30   2.0000      -0.254603        -6.9281
  31   2.0000      -0.212134        -5.7725
  32   0.0000      -0.018735        -0.5098
  33   0.0000       0.036740         0.9997
  34   0.0000       0.051678         1.4062
  35   0.0000       0.070379         1.9151
  36   0.0000       0.081007         2.2043

MULLIKEN ATOMIC CHARGES
-----------------------
   0 C :   -0.287183
   1 C :   -0.215128
   2 C :   -0.102303
   3 C :    0.081771
   4 O :   -0.204685
   5 O :   -0.245532
   6 C :   -0.027176
   7 C :   -0.280016
   8 H :    0.105902
   9 H :    0.118661
  10 H :    0.103270
  11 H :    0.094047
  12 H :    0.101780
  13 H :    0.096776
  14 H :    0.105033
  15 H :    0.113773
  16 H :    0.102063
  17 H :    0.111321
  18 H :    0.113610
  19 H :    0.114014
Sum of atomic charges:   -0.0000000

LOEWDIN ATOMIC CHARGES
----------------------
   0 C :   -0.342321
   1 C :   -0.229613
   2 C :   -0.242369
   3 C :    0.032130
   4 O :   -0.169012
   5 O :   -0.070448
   6 C :   -0.110963
   7 C :   -0.350887
   8 H :    0.120582
   9 H :    0.120872
  10 H :    0.120539
  11 H :    0.118522
  12 H :    0.119159
  13 H :    0.131743
  14 H :    0.136597
  15 H :    0.119089
  16 H :    0.114941
  17 H :    0.129931
  18 H :    0.125413
  19 H :    0.126096

  Mayer bond orders larger than 0.100000
B(  0-C ,  1-C ) :   1.1521 B(  0-C ,  8-H ) :   0.9515 B(  0-C ,  9-H ) :   0.9482
B(  0-C , 10-H ) :   0.9535 B(  1-C ,  2-C ) :   1.1101 B(  1-C , 11-H ) :   0.9273
B(  1-C , 12-H ) :   0.9243 B(  2-C ,  3-C ) :   1.0304 B(  2-C , 13-H ) :   0.9109
B(  2-C , 14-H ) :   0.8945 B(  3-C ,  4-O ) :   2.0671 B(  3-C ,  5-O ) :   1.1880
B(  5-O ,  6-C ) :   0.9137 B(  6-C ,  7-C ) :   1.1575 B(  6-C , 15-H ) :   0.9165
B(  6-C , 16-H ) :   0.9353 B(  7-C , 17-H ) :   0.9447 B(  7-C , 18-H ) :   0.9487
B(  7-C , 19-H ) :   0.9524

Dispersion correction           -0.015020102
FINAL SINGLE POINT ENERGY      -385.456962631908

DIPOLE MOMENT
-------------

Method             : SCF
Type of density    : Electron Density
Multiplicity       :   1
Irrep              :   0
Energy             :  -385.5319370650514088 Eh
Relativity type    :
Basis              : AO
                                X                 Y                 Z
Electronic contribution:      1.514227744       4.702586034      -0.688129945
Nuclear contribution   :     -1.311348845      -5.466273370       0.445006209
                        -----------------------------------------
Total Dipole Moment    :      0.202878898      -0.763687336      -0.243123736
                        -----------------------------------------
Magnitude (a.u.)       :      0.826732935
Magnitude (Debye)      :      2.101388120

Rotational constants in cm-1:             0.117858             0.036597             0.033312
Rotational constants in MHz :          3533.295363          1097.151384           998.672650

                             ****ORCA TERMINATED NORMALLY****
TOTAL RUN TIME: 0 days 0 hours 0 minutes 10 seconds 849 msec
