                         Program Version 6.0.0  -   RELEASE  -
|  1> ! pbe def2-sv(p) def2/J RI DEFGRID1 loosescf d4 GCP(DFT/SV(P)) printgap
|  2> %output
|  3>     printlevel normal
|  4> end
|  5> * xyz 0 1
|  6> C -3.5995553695 0.053272373 1.8863052923
|  7> C -3.0548794762 0.5288864975 0.5394737245
|  8> H -3.1776429327 1.6097367789 0.4360567194
|  9> C -1.5868371157 0.1874742607 0.3814522055
| 10> C -1.1800439163 -1.1601910837 0.3555255491
| 11> C 0.1398684214 -1.490164103 0.2316578466
| 12> C 1.1302131199 -0.4911475189 0.1278172724
| 13> C 2.4982649064 -0.8114482718 0.003924032
| 14> C 3.4371865452 0.1843780909 -0.0981536748
| 15> C 3.0311450151 1.5397614758 -0.080035109
| 16> C 1.7151968515 1.8687554676 0.0384261723
| 17> C 0.7246208634 0.8672287092 0.1460795765
| 18> C -0.643582816 1.1760287103 0.2696716222
| 19> O 4.7818321276 -0.0058893892 -0.2208059179
| 20> C 5.2766923197 -1.3306076697 -0.2449427809
| 21> C -3.7791773954 -0.1300703532 -0.6137018935
| 22> O -4.2261421276 -1.2562931108 -0.6073863613
| 23> O -3.8411249069 0.657918853 -1.6756154931
| 24> H -3.5957229785 -1.0324643097 1.9304030743
| 25> H -2.9828198631 0.4435590517 2.6906586838
| 26> H -4.6216849209 0.3977145508 2.0212502466
| 27> H -1.929961356 -1.9348899101 0.4209552656
| 28> H 0.4410008344 -2.5272800773 0.2104035079
| 29> H 2.775001237 -1.8538205668 -0.0069796447
| 30> H 3.7998484379 2.2917039423 -0.1629126914
| 31> H 1.4122384708 2.9047310221 0.051755195
| 32> H -0.9383210076 2.2152977629 0.2797894398
| 33> H 5.0386118172 -1.8566019287 0.6832579041
| 34> H 6.3551997379 -1.2329204605 -0.3450292546
| 35> H 4.8759391068 -1.8849802483 -1.0976112633
| 36> H -4.2664067189 0.2289047893 -2.443830152
| 37> *
| 38>
| 39>                          ****END OF INPUT****

CARTESIAN COORDINATES (ANGSTROEM)
---------------------------------
  C     -3.599555    0.053272    1.886305
  C     -3.054879    0.528886    0.539474
  H     -3.177643    1.609737    0.436057
  C     -1.586837    0.187474    0.381452
  C     -1.180044   -1.160191    0.355526
  C      0.139868   -1.490164    0.231658
  C      1.130213   -0.491148    0.127817
  C      2.498265   -0.811448    0.003924
  C      3.437187    0.184378   -0.098154
  C      3.031145    1.539761   -0.080035
  C      1.715197    1.868755    0.038426
  C      0.724621    0.867229    0.146080
  C     -0.643583    1.176029    0.269672
  O      4.781832   -0.005889   -0.220806
  C      5.276692   -1.330608   -0.244943
  C     -3.779177   -0.130070   -0.613702
  O     -4.226142   -1.256293   -0.607386
  O     -3.841125    0.657919   -1.675615
  H     -3.595723   -1.032464    1.930403
  H     -2.982820    0.443559    2.690659
  H     -4.621685    0.397715    2.021250
  H     -1.929961   -1.934890    0.420955
  H      0.441001   -2.527280    0.210404
  H      2.775001   -1.853821   -0.006980
  H      3.799848    2.291704   -0.162913
  H      1.412238    2.904731    0.051755
  H     -0.938321    2.215298    0.279789
  H      5.038612   -1.856602    0.683258
  H      6.355200   -1.232920   -0.345029
  H      4.875939   -1.884980   -1.097611
  H     -4.266407    0.228905   -2.443830

 Total Charge           Charge          ....    0
 Multiplicity           Mult            ....    1
 Number of Electrons    NEL             ....  122
 Basis Dimension        Dim             ....  266

ORBITAL ENERGIES
----------------

  NO   OCC          E(Eh)            E(eV)
   0   2.0000     -18.800118      -511.5772
   1   2.0000     -18.792568      -511.3718
   2   2.0000     -18.737848      -509.8828
   3   2.0000     -10.012661      -272.4584
   4   2.0000      -9.953641      -270.8523
   5   2.0000      -9.942892      -270.5599
   6   2.0000      -9.911862      -269.7155
   7   2.0000      -9.903555      -269.4894
   8   2.0000      -9.901738      -269.4400
   9   2.0000      -9.897940      -269.3367
  10   2.0000      -9.895397      -269.2674
  11   2.0000      -9.892290      -269.1829
  12   2.0000      -9.891480      -269.1609
  13   2.0000      -9.890293      -269.1286
  14   2.0000      -9.889284      -269.1011
  15   2.0000      -9.888663      -269.0842
  16   2.0000      -9.880570      -268.8640
  17   2.0000      -1.009080       -27.4585
  18   2.0000      -0.972121       -26.4527
  19   2.0000      -0.912105       -24.8196
  20   2.0000      -0.795521       -21.6472
  21   2.0000      -0.757112       -20.6021
  22   2.0000      -0.718554       -19.5528
  23   2.0000      -0.694817       -18.9069
  24   2.0000      -0.671840       -18.2817
  25   2.0000      -0.647749       -17.6262
  26   2.0000      -0.626459       -17.0468
  27   2.0000      -0.611996       -16.6533
  28   2.0000      -0.561054       -15.2671
  29   2.0000      -0.553409       -15.0590
  30   2.0000      -0.540515       -14.7082
  31   2.0000      -0.517965       -14.0945
  32   2.0000      -0.483455       -13.1555
  33   2.0000      -0.465130       -12.6568
  34   2.0000      -0.463355       -12.6085
  35   2.0000      -0.433478       -11.7955
  36   2.0000      -0.423926       -11.5356
  37   2.0000      -0.419188       -11.4067
  38   2.0000      -0.414429       -11.2772
  39   2.0000      -0.409804       -11.1513
  40   2.0000      -0.399354       -10.8670
  41   2.0000      -0.391603       -10.6560
  42   2.0000      -0.380451       -10.3526
  43   2.0000      -0.370734       -10.0882
  44   2.0000      -0.362003        -9.8506
  45   2.0000      -0.357584        -9.7303
  46   2.0000      -0.351738        -9.5713
  47   2.0000      -0.346558        -9.4303
  48   2.0000      -0.336259        -9.1501
  49   2.0000      -0.326554        -8.8860
  50   2.0000      -0.313239        -8.5237
  51   2.0000      -0.311979        -8.4894
  52   2.0000      -0.303269        -8.2524
  53   2.0000      -0.291692        -7.9373
  54   2.0000      -0.282212        -7.6794
  55   2.0000      -0.273695        -7.4476
  56   2.0000      -0.267779        -7.2866
  57   2.0000      -0.251801        -6.8519
  58   2.0000      -0.222204        -6.0465
  59   2.0000      -0.208921        -5.6850
  60   2.0000      -0.185697        -5.0531
  61   0.0000      -0.064748        -1.7619
  62   0.0000      -0.038871        -1.0577
  63   0.0000      -0.014794        -0.4026
  64   0.0000      -0.001369        -0.0373
  65   0.0000       0.026958         0.7336

MULLIKEN ATOMIC CHARGES
-----------------------
   0 C :   -0.219658
   1 C :   -0.120992
   2 H :    0.075157
   3 C :    0.105327
   4 C :   -0.102028
   5 C :   -0.126435
   6 C :    0.170366
   7 C :   -0.300044
   8 C :    0.294045
   9 C :   -0.093426
  10 C :   -0.129183
  11 C :    0.176897
  12 C :   -0.215299
  13 O :   -0.268097
  14 C :   -0.114041
  15 C :    0.109644
  16 O :   -0.191590
  17 O :   -0.282222
  18 H :    0.121328
  19 H :    0.108702
  20 H :    0.104848
  21 H :    0.062015
  22 H :    0.033707
  23 H :    0.024437
  24 H :    0.046255
  25 H :    0.040381
  26 H :    0.024418
  27 H :    0.112150
  28 H :    0.126699
  29 H :    0.112150
  30 H :    0.314488
Sum of atomic charges:    0.0000000

LOEWDIN ATOMIC CHARGES
----------------------
   0 C :   -0.318211
   1 C :   -0.153733
   2 H :    0.132219
   3 C :   -0.036819
   4 C :   -0.118001
   5 C :   -0.113645
   6 C :   -0.017723
   7 C :   -0.173640
   8 C :    0.029214
   9 C :   -0.133467
  10 C :   -0.105322
  11 C :   -0.035014
  12 C :   -0.109835
  13 O :   -0.089155
  14 C :   -0.202002
  15 C :    0.037487
  16 O :   -0.170662
  17 O :   -0.199135
  18 H :    0.128177
  19 H :    0.125263
  20 H :    0.123143
  21 H :    0.130312
  22 H :    0.122717
  23 H :    0.125931
  24 H :    0.131317
  25 H :    0.125506
  26 H :    0.121925
  27 H :    0.110743
  28 H :    0.123074
  29 H :    0.110704
  30 H :    0.298634

  Mayer bond orders larger than 0.100000
B(  0-C ,  1-C ) :   1.1031 B(  0-C , 18-H ) :   0.9358 B(  0-C , 19-H ) :   0.9490
B(  0-C , 20-H ) :   0.9495 B(  1-C ,  2-H ) :   0.8697 B(  1-C ,  3-C ) :   1.0071
B(  1-C , 15-C ) :   0.9278 B(  3-C ,  4-C ) :   1.2619 B(  3-C , 12-C ) :   1.4483
B(  4-C ,  5-C ) :   1.4424 B(  4-C , 21-H ) :   0.9477 B(  5-C ,  6-C ) :   1.2278
B(  5-C , 22-H ) :   0.9664 B(  6-C ,  7-C ) :   1.2021 B(  6-C , 11-C ) :   1.2567
B(  7-C ,  8-C ) :   1.3347 B(  7-C , 23-H ) :   0.9644 B(  8-C ,  9-C ) :   1.2455
B(  8-C , 13-O ) :   1.1400 B(  9-C , 10-C ) :   1.4582 B(  9-C , 24-H ) :   0.9615
B( 10-C , 11-C ) :   1.2037 B( 10-C , 25-H ) :   0.9677 B( 11-C , 12-C ) :   1.2241
B( 12-C , 26-H ) :   0.9643 B( 13-O , 14-C ) :   0.9880 B( 14-C , 27-H ) :   0.9414
B( 14-C , 28-H ) :   0.9585 B( 14-C , 29-H ) :   0.9415 B( 15-C , 16-O ) :   2.0724
B( 15-C , 17-O ) :   1.3075 B( 17-O , 30-H ) :   0.8200

Dispersion correction           -0.038914365
FINAL SINGLE POINT ENERGY      -765.995949032036

DIPOLE MOMENT
-------------

Method             : SCF
Type of density    : Electron Density
Multiplicity       :   1
Irrep              :   0
Energy             :  -766.0902135171188547 Eh
Relativity type    :
Basis              : AO
                                X                 Y                 Z
Electronic contribution:     -2.440848578       2.186920509      -4.579763228
Nuclear contribution   :      2.939671727      -2.102299745       4.342450618
                        -----------------------------------------
Total Dipole Moment    :      0.498823149       0.084620764      -0.237312610
                        -----------------------------------------
Magnitude (a.u.)       :      0.558840301
Magnitude (Debye)      :      1.420459160

Rotational constants in cm-1:             0.043816             0.006962             0.006632
Rotational constants in MHz :          1313.576647           208.727639           198.821067

                             ****ORCA TERMINATED NORMALLY****
TOTAL RUN TIME: 0 days 0 hours 0 minutes 28 seconds 57 msec
