                         Program Version 6.0.0  -   RELEASE  -
|  1> ! pbe def2-sv(p) def2/J RI DEFGRID1 loosescf d4 GCP(DFT/SV(P)) printgap
|  2> %output
|  3>     printlevel normal
|  4> end
|  5> * xyz 0 1
|  6> C 1.9761357769 -0.6545114685 0.2028965127
|  7> C 1.1197430041 0.305784638 -0.6159773557
|  8> C 0.0001321164 0.9640689205 0.1937210788
|  9> C -1.0929829002 0.0059184374 0.67105653
| 10> N -1.906582589 -0.4626396692 -0.4451569034
| 11> H 2.3903180123 -0.1464213886 1.0709812309
| 12> H 1.3952219588 -1.5055419885 0.5495921088
| 13> H 2.7987988208 -1.0317612811 -0.3999344648
| 14> H 1.7609405324 1.097511511 -1.0096725873
| 15> H 0.6943746107 -0.2203106244 -1.4726122833
| 16> H 0.4357387299 1.4502279955 1.0689589472
| 17> H -0.4754314963 1.7302029535 -0.4202241664
| 18> H -1.7600407917 0.5497754946 1.3466824397
| 19> H -0.6385068553 -0.816340791 1.2477883727
| 20> H -1.3342329954 -1.0118297006 -1.07765583
| 21> H -2.6413634045 -1.0697210695 -0.100402086
| 22> *
| 23>
| 24>                          ****END OF INPUT****

CARTESIAN COORDINATES (ANGSTROEM)
---------------------------------
  C      1.976136   -0.654511    0.202897
  C      1.119743    0.305785   -0.615977
  C      0.000132    0.964069    0.193721
  C     -1.092983    0.005918    0.671057
  N     -1.906583   -0.462640   -0.445157
  H      2.390318   -0.146421    1.070981
  H      1.395222   -1.505542    0.549592
  H      2.798799   -1.031761   -0.399934
  H      1.760941    1.097512   -1.009673
  H      0.694375   -0.220311   -1.472612
  H      0.435739    1.450228    1.068959
  H     -0.475431    1.730203   -0.420224
  H     -1.760041    0.549775    1.346682
  H     -0.638507   -0.816341    1.247788
  H     -1.334233   -1.011830   -1.077656
  H     -2.641363   -1.069721   -0.100402

 Total Charge           Charge          ....    0
 Multiplicity           Mult            ....    1
 Number of Electrons    NEL             ....   42
 Basis Dimension        Dim             ....   92

ORBITAL ENERGIES
----------------

  NO   OCC          E(Eh)            E(eV)
   0   2.0000     -13.953342      -379.6897
   1   2.0000      -9.902101      -269.4499
   2   2.0000      -9.882596      -268.9191
   3   2.0000      -9.875935      -268.7379
   4   2.0000      -9.872942      -268.6564
   5   2.0000      -0.790160       -21.5013
   6   2.0000      -0.703842       -19.1525
   7   2.0000      -0.628652       -17.1065
   8   2.0000      -0.560923       -15.2635
   9   2.0000      -0.494188       -13.4475
  10   2.0000      -0.444285       -12.0896
  11   2.0000      -0.418620       -11.3912
  12   2.0000      -0.390274       -10.6199
  13   2.0000      -0.379252       -10.3200
  14   2.0000      -0.348990        -9.4965
  15   2.0000      -0.332519        -9.0483
  16   2.0000      -0.322797        -8.7838
  17   2.0000      -0.287600        -7.8260
  18   2.0000      -0.281283        -7.6541
  19   2.0000      -0.277539        -7.5522
  20   2.0000      -0.178596        -4.8598
  21   0.0000       0.026348         0.7170
  22   0.0000       0.060144         1.6366
  23   0.0000       0.067535         1.8377
  24   0.0000       0.075081         2.0431
  25   0.0000       0.100584         2.7370

MULLIKEN ATOMIC CHARGES
-----------------------
   0 C :   -0.290172
   1 C :   -0.197554
   2 C :   -0.156270
   3 C :   -0.082737
   4 N :   -0.467428
   5 H :    0.098241
   6 H :    0.104731
   7 H :    0.102459
   8 H :    0.088859
   9 H :    0.085087
  10 H :    0.078173
  11 H :    0.088441
  12 H :    0.079072
  13 H :    0.066904
  14 H :    0.199958
  15 H :    0.202236
Sum of atomic charges:   -0.0000000

LOEWDIN ATOMIC CHARGES
----------------------
   0 C :   -0.344173
   1 C :   -0.238009
   2 C :   -0.235751
   3 C :   -0.177827
   4 N :   -0.419866
   5 H :    0.117432
   6 H :    0.114650
   7 H :    0.119256
   8 H :    0.118002
   9 H :    0.110745
  10 H :    0.114834
  11 H :    0.120400
  12 H :    0.111541
  13 H :    0.087118
  14 H :    0.197933
  15 H :    0.203714

  Mayer bond orders larger than 0.100000
B(  0-C ,  1-C ) :   1.1475 B(  0-C ,  5-H ) :   0.9546 B(  0-C ,  6-H ) :   0.9518
B(  0-C ,  7-H ) :   0.9514 B(  1-C ,  2-C ) :   1.1271 B(  1-C ,  8-H ) :   0.9273
B(  1-C ,  9-H ) :   0.9241 B(  2-C ,  3-C ) :   1.1246 B(  2-C , 10-H ) :   0.9205
B(  2-C , 11-H ) :   0.9143 B(  3-C ,  4-N ) :   1.1057 B(  3-C , 12-H ) :   0.9272
B(  3-C , 13-H ) :   0.9138 B(  4-N , 14-H ) :   0.9005 B(  4-N , 15-H ) :   0.9038

Dispersion correction           -0.010481727
FINAL SINGLE POINT ENERGY      -213.243874680425

DIPOLE MOMENT
-------------

Method             : SCF
Type of density    : Electron Density
Multiplicity       :   1
Irrep              :   0
Energy             :  -213.3040248136387618 Eh
Relativity type    :
Basis              : AO
                                X                 Y                 Z
Electronic contribution:     -2.304594701       0.473165958      -0.575503884
Nuclear contribution   :      2.453024486      -0.916494053       0.751382513
                        -----------------------------------------
Total Dipole Moment    :      0.148429785      -0.443328095       0.175878629
                        -----------------------------------------
Magnitude (a.u.)       :      0.499504248
Magnitude (Debye)      :      1.269638897

Rotational constants in cm-1:             0.291788             0.091940             0.087367
Rotational constants in MHz :          8747.595219          2756.293982          2619.193314

                             ****ORCA TERMINATED NORMALLY****
TOTAL RUN TIME: 0 days 0 hours 0 minutes 6 seconds 535 msec
