                         Program Version 6.0.0  -   RELEASE  -
|  1> ! r2scan-3c def2/J RI DEFGRID2 scfconv6 printgap
|  2> %output
|  3>     printlevel normal
|  4> end
|  5> * xyz 0 1
|  6> C -2.3521287039 -1.3923851755 -0.2795741674
|  7> C -2.5323660141 0.0819636193 0.060996518
|  8> C -1.3201082672 0.6391695066 0.8149894852
|  9> C -0.1011902274 0.6518474704 -0.0708583317
| 10> O -0.0338613686 1.1934558787 -1.1558045034
| 11> O 0.9107368998 -0.0092086833 0.4724817709
| 12> C 2.1435374147 -0.0778892142 -0.2639679717
| 13> C 3.093635458 -0.9895352912 0.4878732523
| 14> H -1.4934726872 -1.5286615041 -0.9345433972
| 15> H -2.1920836277 -1.9765716676 0.623415085
| 16> H -3.2332274466 -1.7741010757 -0.7883190551
| 17> H -3.420288104 0.2095381955 0.6805617487
| 18> H -2.6667576658 0.6576743946 -0.8567474782
| 19> H -1.1010675875 0.0427064368 1.699651014
| 20> H -1.5206959593 1.670034655 1.111258073
| 21> H 1.9258893908 -0.4535495128 -1.2693768062
| 22> H 2.5441745576 0.9365982371 -0.3597748945
| 23> H 4.033473923 -1.0518213378 -0.0505497587
| 24> H 3.2750344689 -0.5960169899 1.483545634
| 25> H 2.6640981555 -1.9829778061 0.5767487344
| 26> *
| 27>
| 28>                          ****END OF INPUT****

CARTESIAN COORDINATES (ANGSTROEM)
---------------------------------
  C     -2.352129   -1.392385   -0.279574
  C     -2.532366    0.081964    0.060997
  C     -1.320108    0.639170    0.814989
  C     -0.101190    0.651847   -0.070858
  O     -0.033861    1.193456   -1.155805
  O      0.910737   -0.009209    0.472482
  C      2.143537   -0.077889   -0.263968
  C      3.093635   -0.989535    0.487873
  H     -1.493473   -1.528662   -0.934543
  H     -2.192084   -1.976572    0.623415
  H     -3.233227   -1.774101   -0.788319
  H     -3.420288    0.209538    0.680562
  H     -2.666758    0.657674   -0.856747
  H     -1.101068    0.042706    1.699651
  H     -1.520696    1.670035    1.111258
  H      1.925889   -0.453550   -1.269377
  H      2.544175    0.936598   -0.359775
  H      4.033474   -1.051821   -0.050550
  H      3.275034   -0.596017    1.483546
  H      2.664098   -1.982978    0.576749

 Total Charge           Charge          ....    0
 Multiplicity           Mult            ....    1
 Number of Electrons    NEL             ....   64
 Basis Dimension        Dim             ....  222

ORBITAL ENERGIES
----------------

  NO   OCC          E(Eh)            E(eV)
   0   2.0000     -18.996922      -516.9325
   1   2.0000     -18.926718      -515.0222
   2   2.0000     -10.150340      -276.2048
   3   2.0000     -10.091418      -274.6014
   4   2.0000     -10.040041      -273.2034
   5   2.0000     -10.033832      -273.0345
   6   2.0000     -10.032042      -272.9857
   7   2.0000     -10.019254      -272.6378
   8   2.0000      -1.071798       -29.1651
   9   2.0000      -0.973720       -26.4963
  10   2.0000      -0.773292       -21.0424
  11   2.0000      -0.743078       -20.2202
  12   2.0000      -0.677586       -18.4381
  13   2.0000      -0.617793       -16.8110
  14   2.0000      -0.565192       -15.3797
  15   2.0000      -0.529495       -14.4083
  16   2.0000      -0.469802       -12.7840
  17   2.0000      -0.464361       -12.6359
  18   2.0000      -0.436048       -11.8655
  19   2.0000      -0.424581       -11.5534
  20   2.0000      -0.407815       -11.0972
  21   2.0000      -0.379361       -10.3229
  22   2.0000      -0.378304       -10.2942
  23   2.0000      -0.366605        -9.9758
  24   2.0000      -0.361218        -9.8292
  25   2.0000      -0.334476        -9.1016
  26   2.0000      -0.323645        -8.8068
  27   2.0000      -0.309301        -8.4165
  28   2.0000      -0.307992        -8.3809
  29   2.0000      -0.306721        -8.3463
  30   2.0000      -0.271580        -7.3901
  31   2.0000      -0.234215        -6.3733
  32   0.0000      -0.015073        -0.4102
  33   0.0000       0.073284         1.9941
  34   0.0000       0.096518         2.6264
  35   0.0000       0.105619         2.8740
  36   0.0000       0.124824         3.3966

MULLIKEN ATOMIC CHARGES
-----------------------
   0 C :   -0.493241
   1 C :   -0.217305
   2 C :   -0.299984
   3 C :    0.329403
   4 O :   -0.419504
   5 O :   -0.156889
   6 C :   -0.154164
   7 C :   -0.441213
   8 H :    0.155642
   9 H :    0.146448
  10 H :    0.148489
  11 H :    0.144375
  12 H :    0.161906
  13 H :    0.164151
  14 H :    0.165421
  15 H :    0.160773
  16 H :    0.153753
  17 H :    0.147148
  18 H :    0.152237
  19 H :    0.152555
Sum of atomic charges:   -0.0000000

LOEWDIN ATOMIC CHARGES
----------------------
   0 C :   -0.416663
   1 C :   -0.292944
   2 C :   -0.232646
   3 C :    0.351193
   4 O :   -0.431002
   5 O :   -0.598470
   6 C :    0.033034
   7 C :   -0.386529
   8 H :    0.155483
   9 H :    0.150596
  10 H :    0.152744
  11 H :    0.152757
  12 H :    0.167316
  13 H :    0.176633
  14 H :    0.181329
  15 H :    0.181034
  16 H :    0.177975
  17 H :    0.159449
  18 H :    0.159343
  19 H :    0.159368

  Mayer bond orders larger than 0.100000
B(  0-C ,  1-C ) :   0.9047 B(  0-C ,  8-H ) :   0.9730 B(  0-C ,  9-H ) :   0.9818
B(  0-C , 10-H ) :   0.9688 B(  1-C ,  2-C ) :   0.8875 B(  1-C , 11-H ) :   0.9659
B(  1-C , 12-H ) :   0.9679 B(  2-C ,  3-C ) :   0.9347 B(  2-C , 13-H ) :   1.0089
B(  2-C , 14-H ) :   0.9382 B(  3-C ,  4-O ) :   1.8137 B(  3-C ,  5-O ) :   1.0707
B(  5-O ,  6-C ) :   0.8058 B(  6-C ,  7-C ) :   0.9392 B(  6-C , 15-H ) :   0.9566
B(  6-C , 16-H ) :   0.9500 B(  7-C , 17-H ) :   0.9683 B(  7-C , 18-H ) :   0.9709
B(  7-C , 19-H ) :   0.9734

Dispersion correction           -0.005042097
FINAL SINGLE POINT ENERGY      -386.236633629351

DIPOLE MOMENT
-------------

Method             : SCF
Type of density    : Electron Density
Multiplicity       :   1
Irrep              :   0
Energy             :  -386.2432375740183943 Eh
Relativity type    :
Basis              : AO
                                X                 Y                 Z
Electronic contribution:      1.340923849       4.986833944      -1.182552191
Nuclear contribution   :     -1.098652451      -5.468039298       1.787271977
                        -----------------------------------------
Total Dipole Moment    :      0.242271399      -0.481205354       0.604719786
                        -----------------------------------------
Magnitude (a.u.)       :      0.809901256
Magnitude (Debye)      :      2.058605392

Rotational constants in cm-1:             0.124689             0.035312             0.032054
Rotational constants in MHz :          3738.070767          1058.628609           960.947124

                             ****ORCA TERMINATED NORMALLY****
TOTAL RUN TIME: 0 days 0 hours 0 minutes 30 seconds 181 msec
