                         Program Version 6.0.0  -   RELEASE  -
|  1> ! r2scan-3c def2/J RI DEFGRID2 scfconv6 printgap
|  2> %output
|  3>     printlevel normal
|  4> end
|  5> %cpcm
|  6>     smd true
|  7>     smdsolvent "water"
|  8> end
|  9> * xyz 0 1
| 10> C -2.3521287039 -1.3923851755 -0.2795741674
| 11> C -2.5323660141 0.0819636193 0.060996518
| 12> C -1.3201082672 0.6391695066 0.8149894852
| 13> C -0.1011902274 0.6518474704 -0.0708583317
| 14> O -0.0338613686 1.1934558787 -1.1558045034
| 15> O 0.9107368998 -0.0092086833 0.4724817709
| 16> C 2.1435374147 -0.0778892142 -0.2639679717
| 17> C 3.093635458 -0.9895352912 0.4878732523
| 18> H -1.4934726872 -1.5286615041 -0.9345433972
| 19> H -2.1920836277 -1.9765716676 0.623415085
| 20> H -3.2332274466 -1.7741010757 -0.7883190551
| 21> H -3.420288104 0.2095381955 0.6805617487
| 22> H -2.6667576658 0.6576743946 -0.8567474782
| 23> H -1.1010675875 0.0427064368 1.699651014
| 24> H -1.5206959593 1.670034655 1.111258073
| 25> H 1.9258893908 -0.4535495128 -1.2693768062
| 26> H 2.5441745576 0.9365982371 -0.3597748945
| 27> H 4.033473923 -1.0518213378 -0.0505497587
| 28> H 3.2750344689 -0.5960169899 1.483545634
| 29> H 2.6640981555 -1.9829778061 0.5767487344
| 30> *
| 31>
| 32>                          ****END OF INPUT****

CARTESIAN COORDINATES (ANGSTROEM)
---------------------------------
  C     -2.352129   -1.392385   -0.279574
  C     -2.532366    0.081964    0.060997
  C     -1.320108    0.639170    0.814989
  C     -0.101190    0.651847   -0.070858
  O     -0.033861    1.193456   -1.155805
  O      0.910737   -0.009209    0.472482
  C      2.143537   -0.077889   -0.263968
  C      3.093635   -0.989535    0.487873
  H     -1.493473   -1.528662   -0.934543
  H     -2.192084   -1.976572    0.623415
  H     -3.233227   -1.774101   -0.788319
  H     -3.420288    0.209538    0.680562
  H     -2.666758    0.657674   -0.856747
  H     -1.101068    0.042706    1.699651
  H     -1.520696    1.670035    1.111258
  H      1.925889   -0.453550   -1.269377
  H      2.544175    0.936598   -0.359775
  H      4.033474   -1.051821   -0.050550
  H      3.275034   -0.596017    1.483546
  H      2.664098   -1.982978    0.576749

 Total Charge           Charge          ....    0
 Multiplicity           Mult            ....    1
 Number of Electrons    NEL             ....   64
 Basis Dimension        Dim             ....  222

ORBITAL ENERGIES
----------------

  NO   OCC          E(Eh)            E(eV)
   0   2.0000     -19.003500      -517.1115
   1   2.0000     -18.943463      -515.4778
   2   2.0000     -10.161830      -276.5175
   3   2.0000     -10.083911      -274.3972
   4   2.0000     -10.035182      -273.0712
   5   2.0000     -10.028220      -272.8817
   6   2.0000     -10.018904      -272.6282
   7   2.0000     -10.011586      -272.4291
   8   2.0000      -1.079878       -29.3850
   9   2.0000      -0.988407       -26.8959
  10   2.0000      -0.769568       -20.9410
  11   2.0000      -0.735768       -20.0213
  12   2.0000      -0.672106       -18.2889
  13   2.0000      -0.611621       -16.6431
  14   2.0000      -0.559126       -15.2146
  15   2.0000      -0.528933       -14.3930
  16   2.0000      -0.472303       -12.8520
  17   2.0000      -0.464407       -12.6371
  18   2.0000      -0.445162       -12.1135
  19   2.0000      -0.420881       -11.4528
  20   2.0000      -0.405670       -11.0388
  21   2.0000      -0.377137       -10.2624
  22   2.0000      -0.369161       -10.0454
  23   2.0000      -0.361378        -9.8336
  24   2.0000      -0.355861        -9.6835
  25   2.0000      -0.329516        -8.9666
  26   2.0000      -0.320772        -8.7287
  27   2.0000      -0.304533        -8.2868
  28   2.0000      -0.304256        -8.2792
  29   2.0000      -0.303449        -8.2573
  30   2.0000      -0.278356        -7.5745
  31   2.0000      -0.251762        -6.8508
  32   0.0000      -0.023785        -0.6472
  33   0.0000       0.076019         2.0686
  34   0.0000       0.104419         2.8414
  35   0.0000       0.115440         3.1413
  36   0.0000       0.132220         3.5979

MULLIKEN ATOMIC CHARGES
-----------------------
   0 C :   -0.529591
   1 C :   -0.224411
   2 C :   -0.316373
   3 C :    0.376075
   4 O :   -0.506655
   5 O :   -0.174616
   6 C :   -0.157594
   7 C :   -0.490638
   8 H :    0.162521
   9 H :    0.162528
  10 H :    0.161503
  11 H :    0.163792
  12 H :    0.155299
  13 H :    0.179990
  14 H :    0.193751
  15 H :    0.172310
  16 H :    0.172519
  17 H :    0.169128
  18 H :    0.164912
  19 H :    0.165549
Sum of atomic charges:   -0.0000000

LOEWDIN ATOMIC CHARGES
----------------------
   0 C :   -0.423829
   1 C :   -0.292263
   2 C :   -0.229634
   3 C :    0.361676
   4 O :   -0.492653
   5 O :   -0.600079
   6 C :    0.035440
   7 C :   -0.389695
   8 H :    0.156171
   9 H :    0.155892
  10 H :    0.156248
  11 H :    0.160429
  12 H :    0.163252
  13 H :    0.184442
  14 H :    0.191358
  15 H :    0.185377
  16 H :    0.184196
  17 H :    0.168325
  18 H :    0.162684
  19 H :    0.162663

  Mayer bond orders larger than 0.100000
B(  0-C ,  1-C ) :   0.8973 B(  0-C ,  8-H ) :   0.9705 B(  0-C ,  9-H ) :   0.9781
B(  0-C , 10-H ) :   0.9656 B(  1-C ,  2-C ) :   0.8739 B(  1-C , 11-H ) :   0.9616
B(  1-C , 12-H ) :   0.9722 B(  2-C ,  3-C ) :   0.9370 B(  2-C , 13-H ) :   0.9982
B(  2-C , 14-H ) :   0.9310 B(  3-C ,  4-O ) :   1.7434 B(  3-C ,  5-O ) :   1.0969
B(  5-O ,  6-C ) :   0.7923 B(  6-C ,  7-C ) :   0.9408 B(  6-C , 15-H ) :   0.9493
B(  6-C , 16-H ) :   0.9418 B(  7-C , 17-H ) :   0.9617 B(  7-C , 18-H ) :   0.9687
B(  7-C , 19-H ) :   0.9718

Dispersion correction           -0.005042097
FINAL SINGLE POINT ENERGY      -386.242305485226

DIPOLE MOMENT
-------------

Method             : SCF
Type of density    : Electron Density
Multiplicity       :   1
Irrep              :   0
Energy             :  -386.2489094298937857 Eh
Relativity type    :
Basis              : AO
                                X                 Y                 Z
Electronic contribution:      1.400901683       4.814353028      -0.889104727
Nuclear contribution   :     -1.098652451      -5.468039298       1.787271977
                        -----------------------------------------
Total Dipole Moment    :      0.302249233      -0.653686271       0.898167250
                        -----------------------------------------
Magnitude (a.u.)       :      1.151244869
Magnitude (Debye)      :      2.926231905

Rotational constants in cm-1:             0.124689             0.035312             0.032054
Rotational constants in MHz :          3738.070767          1058.628609           960.947124

                             ****ORCA TERMINATED NORMALLY****
TOTAL RUN TIME: 0 days 0 hours 0 minutes 39 seconds 240 msec
