                         Program Version 6.0.0  -   RELEASE  -
|  1> ! pbe def2-sv(p) def2/J RI DEFGRID1 loosescf d4 GCP(DFT/SV(P)) printgap
|  2> %output
|  3>     printlevel normal
|  4> end
|  5> * xyz 0 1
|  6> C -2.3328233521 -1.2982310116 -0.1848816048
|  7> C -1.9103990453 -0.2176062703 0.8044898427
|  8> C -1.5516998307 1.1105788355 0.1359921644
|  9> C -0.3737651663 1.0013417503 -0.8417109948
| 10> C 0.8538592539 0.4992150178 -0.130062796
| 11> O 1.4337772347 1.0835154978 0.7614022506
| 12> O 1.2381824138 -0.688532124 -0.5867091006
| 13> C 2.3903251434 -1.2870708463 0.0112105861
| 14> H -2.6952319719 -2.172582092 0.3499592907
| 15> H -3.1308013107 -0.9326774082 -0.8267147068
| 16> H -1.4959191339 -1.6062627426 -0.8059575727
| 17> H -2.7285363751 -0.034292735 1.5042893474
| 18> H -1.0555261649 -0.5699089317 1.3877482126
| 19> H -1.2899366972 1.8343093716 0.9105954874
| 20> H -2.4177317071 1.4885658633 -0.4086416357
| 21> H -0.1513302775 1.9933979763 -1.2363905272
| 22> H -0.6060705467 0.3263288519 -1.6625413417
| 23> H 3.2609477086 -0.6469128747 -0.135684611
| 24> H 2.5185824763 -2.2419075905 -0.4884667569
| 25> H 2.227762253 -1.4226962412 1.0812389189
| 26> *
| 27>
| 28>                          ****END OF INPUT****

CARTESIAN COORDINATES (ANGSTROEM)
---------------------------------
  C     -2.332823   -1.298231   -0.184882
  C     -1.910399   -0.217606    0.804490
  C     -1.551700    1.110579    0.135992
  C     -0.373765    1.001342   -0.841711
  C      0.853859    0.499215   -0.130063
  O      1.433777    1.083515    0.761402
  O      1.238182   -0.688532   -0.586709
  C      2.390325   -1.287071    0.011211
  H     -2.695232   -2.172582    0.349959
  H     -3.130801   -0.932677   -0.826715
  H     -1.495919   -1.606263   -0.805958
  H     -2.728536   -0.034293    1.504289
  H     -1.055526   -0.569909    1.387748
  H     -1.289937    1.834309    0.910595
  H     -2.417732    1.488566   -0.408642
  H     -0.151330    1.993398   -1.236391
  H     -0.606071    0.326329   -1.662541
  H      3.260948   -0.646913   -0.135685
  H      2.518582   -2.241908   -0.488467
  H      2.227762   -1.422696    1.081239

 Total Charge           Charge          ....    0
 Multiplicity           Mult            ....    1
 Number of Electrons    NEL             ....   64
 Basis Dimension        Dim             ....  136

ORBITAL ENERGIES
----------------

  NO   OCC          E(Eh)            E(eV)
   0   2.0000     -18.801591      -511.6173
   1   2.0000     -18.731745      -509.7167
   2   2.0000     -10.004479      -272.2357
   3   2.0000      -9.942476      -270.5485
   4   2.0000      -9.895870      -269.2803
   5   2.0000      -9.891213      -269.1536
   6   2.0000      -9.886038      -269.0128
   7   2.0000      -9.874955      -268.7112
   8   2.0000      -1.006354       -27.3843
   9   2.0000      -0.908604       -24.7244
  10   2.0000      -0.732641       -19.9362
  11   2.0000      -0.682469       -18.5709
  12   2.0000      -0.645976       -17.5779
  13   2.0000      -0.585133       -15.9223
  14   2.0000      -0.524314       -14.2673
  15   2.0000      -0.496987       -13.5237
  16   2.0000      -0.448636       -12.2080
  17   2.0000      -0.437518       -11.9055
  18   2.0000      -0.425290       -11.5727
  19   2.0000      -0.410581       -11.1725
  20   2.0000      -0.396927       -10.8009
  21   2.0000      -0.372156       -10.1269
  22   2.0000      -0.360773        -9.8171
  23   2.0000      -0.347076        -9.4444
  24   2.0000      -0.341212        -9.2849
  25   2.0000      -0.326449        -8.8831
  26   2.0000      -0.303047        -8.2463
  27   2.0000      -0.291701        -7.9376
  28   2.0000      -0.286464        -7.7951
  29   2.0000      -0.285265        -7.7625
  30   2.0000      -0.258695        -7.0394
  31   2.0000      -0.217415        -5.9162
  32   0.0000      -0.021291        -0.5794
  33   0.0000       0.034992         0.9522
  34   0.0000       0.055345         1.5060
  35   0.0000       0.070039         1.9059
  36   0.0000       0.078463         2.1351

MULLIKEN ATOMIC CHARGES
-----------------------
   0 C :   -0.293774
   1 C :   -0.191803
   2 C :   -0.183906
   3 C :   -0.123420
   4 C :    0.084531
   5 O :   -0.211378
   6 O :   -0.239414
   7 C :   -0.111140
   8 H :    0.103094
   9 H :    0.097073
  10 H :    0.111169
  11 H :    0.090238
  12 H :    0.103419
  13 H :    0.103259
  14 H :    0.089866
  15 H :    0.110483
  16 H :    0.100999
  17 H :    0.119672
  18 H :    0.121329
  19 H :    0.119705
Sum of atomic charges:    0.0000000

LOEWDIN ATOMIC CHARGES
----------------------
   0 C :   -0.346036
   1 C :   -0.237875
   2 C :   -0.217875
   3 C :   -0.247581
   4 C :    0.035460
   5 O :   -0.171371
   6 O :   -0.072054
   7 C :   -0.204427
   8 H :    0.120458
   9 H :    0.116431
  10 H :    0.117452
  11 H :    0.118522
  12 H :    0.117359
  13 H :    0.124352
  14 H :    0.117662
  15 H :    0.141743
  16 H :    0.127890
  17 H :    0.120182
  18 H :    0.120451
  19 H :    0.119257

  Mayer bond orders larger than 0.100000
B(  0-C ,  1-C ) :   1.1531 B(  0-C ,  8-H ) :   0.9513 B(  0-C ,  9-H ) :   0.9551
B(  0-C , 10-H ) :   0.9452 B(  1-C ,  2-C ) :   1.1350 B(  1-C , 11-H ) :   0.9250
B(  1-C , 12-H ) :   0.9144 B(  2-C ,  3-C ) :   1.1117 B(  2-C , 13-H ) :   0.9176
B(  2-C , 14-H ) :   0.9234 B(  3-C ,  4-C ) :   1.0229 B(  3-C , 15-H ) :   0.8943
B(  3-C , 16-H ) :   0.9031 B(  4-C ,  5-O ) :   2.0535 B(  4-C ,  6-O ) :   1.2017
B(  6-O ,  7-C ) :   0.9401 B(  7-C , 17-H ) :   0.9522 B(  7-C , 18-H ) :   0.9591
B(  7-C , 19-H ) :   0.9511

Dispersion correction           -0.015993333
FINAL SINGLE POINT ENERGY      -385.453016069017

DIPOLE MOMENT
-------------

Method             : SCF
Type of density    : Electron Density
Multiplicity       :   1
Irrep              :   0
Energy             :  -385.5278013942809139 Eh
Relativity type    :
Basis              : AO
                                X                 Y                 Z
Electronic contribution:      6.924197265       3.185033631      -0.061085294
Nuclear contribution   :     -7.056477270      -3.732398318      -0.307535535
                        -----------------------------------------
Total Dipole Moment    :     -0.132280005      -0.547364687      -0.368620830
                        -----------------------------------------
Magnitude (a.u.)       :      0.673043399
Magnitude (Debye)      :      1.710740365

Rotational constants in cm-1:             0.101316             0.044763             0.036905
Rotational constants in MHz :          3037.388619          1341.974249          1106.386568

                             ****ORCA TERMINATED NORMALLY****
TOTAL RUN TIME: 0 days 0 hours 0 minutes 11 seconds 98 msec
