                         Program Version 6.0.0  -   RELEASE  -
|  1> ! pbe def2-sv(p) def2/J RI DEFGRID1 loosescf d4 GCP(DFT/SV(P)) printgap
|  2> %output
|  3>     printlevel normal
|  4> end
|  5> * xyz 0 1
|  6> C -2.8177144716 0.819995029 0.6907738294
|  7> C -2.5128380624 -0.2878295204 -0.3104325208
|  8> C -1.199617591 -0.9986165269 0.0181521993
|  9> C -0.0053711111 -0.1062890285 -0.2061925289
| 10> O 0.0957579976 0.718424626 -1.0896625984
| 11> O 0.9461365332 -0.3417298367 0.6914950411
| 12> C 2.1811320421 0.3864618991 0.5876603316
| 13> C 3.137711397 -0.2869629144 -0.3844556128
| 14> H -3.7605637911 1.3021007291 0.4471392764
| 15> H -2.8840994223 0.4180403563 1.6990504247
| 16> H -2.0330379058 1.5738420031 0.669526781
| 17> H -2.437562446 0.1382797157 -1.3125068357
| 18> H -3.3219156643 -1.0185334713 -0.3060037651
| 19> H -1.0727547009 -1.8612127301 -0.6401120856
| 20> H -1.1806767426 -1.3480405485 1.050159349
| 21> H 1.9577714235 1.40723385 0.2625046235
| 22> H 2.5822006489 0.3905346172 1.60149726
| 23> H 2.7210262994 -0.2693023989 -1.3891320484
| 24> H 4.0829931108 0.2457878786 -0.3860643075
| 25> H 3.306803616 -1.3188353849 -0.0887334614
| 26> *
| 27>
| 28>                          ****END OF INPUT****

CARTESIAN COORDINATES (ANGSTROEM)
---------------------------------
  C     -2.817714    0.819995    0.690774
  C     -2.512838   -0.287830   -0.310433
  C     -1.199618   -0.998617    0.018152
  C     -0.005371   -0.106289   -0.206193
  O      0.095758    0.718425   -1.089663
  O      0.946137   -0.341730    0.691495
  C      2.181132    0.386462    0.587660
  C      3.137711   -0.286963   -0.384456
  H     -3.760564    1.302101    0.447139
  H     -2.884099    0.418040    1.699050
  H     -2.033038    1.573842    0.669527
  H     -2.437562    0.138280   -1.312507
  H     -3.321916   -1.018533   -0.306004
  H     -1.072755   -1.861213   -0.640112
  H     -1.180677   -1.348041    1.050159
  H      1.957771    1.407234    0.262505
  H      2.582201    0.390535    1.601497
  H      2.721026   -0.269302   -1.389132
  H      4.082993    0.245788   -0.386064
  H      3.306804   -1.318835   -0.088733

 Total Charge           Charge          ....    0
 Multiplicity           Mult            ....    1
 Number of Electrons    NEL             ....   64
 Basis Dimension        Dim             ....  136

ORBITAL ENERGIES
----------------

  NO   OCC          E(Eh)            E(eV)
   0   2.0000     -18.797201      -511.4978
   1   2.0000     -18.732788      -509.7451
   2   2.0000     -10.005600      -272.2662
   3   2.0000      -9.946298      -270.6525
   4   2.0000      -9.896736      -269.3039
   5   2.0000      -9.887653      -269.0567
   6   2.0000      -9.886768      -269.0326
   7   2.0000      -9.873988      -268.6849
   8   2.0000      -1.003809       -27.3150
   9   2.0000      -0.909675       -24.7535
  10   2.0000      -0.725761       -19.7490
  11   2.0000      -0.696181       -18.9440
  12   2.0000      -0.636499       -17.3200
  13   2.0000      -0.589780       -16.0487
  14   2.0000      -0.530534       -14.4366
  15   2.0000      -0.491480       -13.3738
  16   2.0000      -0.452478       -12.3126
  17   2.0000      -0.434319       -11.8184
  18   2.0000      -0.422479       -11.4962
  19   2.0000      -0.397436       -10.8148
  20   2.0000      -0.390485       -10.6256
  21   2.0000      -0.373121       -10.1531
  22   2.0000      -0.363181        -9.8827
  23   2.0000      -0.349239        -9.5033
  24   2.0000      -0.336659        -9.1610
  25   2.0000      -0.328767        -8.9462
  26   2.0000      -0.302796        -8.2395
  27   2.0000      -0.297291        -8.0897
  28   2.0000      -0.294884        -8.0242
  29   2.0000      -0.287794        -7.8313
  30   2.0000      -0.256163        -6.9705
  31   2.0000      -0.219356        -5.9690
  32   0.0000      -0.020286        -0.5520
  33   0.0000       0.040422         1.0999
  34   0.0000       0.055321         1.5054
  35   0.0000       0.078517         2.1366
  36   0.0000       0.083252         2.2654

MULLIKEN ATOMIC CHARGES
-----------------------
   0 C :   -0.291526
   1 C :   -0.181794
   2 C :   -0.143150
   3 C :    0.098186
   4 O :   -0.211131
   5 O :   -0.235780
   6 C :   -0.012339
   7 C :   -0.305299
   8 H :    0.106363
   9 H :    0.096464
  10 H :    0.115811
  11 H :    0.106150
  12 H :    0.086565
  13 H :    0.115933
  14 H :    0.096666
  15 H :    0.106833
  16 H :    0.100902
  17 H :    0.126657
  18 H :    0.111916
  19 H :    0.112571
Sum of atomic charges:   -0.0000000

LOEWDIN ATOMIC CHARGES
----------------------
   0 C :   -0.342538
   1 C :   -0.230470
   2 C :   -0.249446
   3 C :    0.038609
   4 O :   -0.171900
   5 O :   -0.067969
   6 C :   -0.113271
   7 C :   -0.356614
   8 H :    0.121193
   9 H :    0.115664
  10 H :    0.121258
  11 H :    0.125216
  12 H :    0.117314
  13 H :    0.144155
  14 H :    0.129145
  15 H :    0.118724
  16 H :    0.116644
  17 H :    0.130248
  18 H :    0.130028
  19 H :    0.124009

  Mayer bond orders larger than 0.100000
B(  0-C ,  1-C ) :   1.1548 B(  0-C ,  8-H ) :   0.9528 B(  0-C ,  9-H ) :   0.9539
B(  0-C , 10-H ) :   0.9514 B(  1-C ,  2-C ) :   1.1140 B(  1-C , 11-H ) :   0.9165
B(  1-C , 12-H ) :   0.9258 B(  2-C ,  3-C ) :   1.0182 B(  2-C , 13-H ) :   0.8891
B(  2-C , 14-H ) :   0.9104 B(  3-C ,  4-O ) :   2.0280 B(  3-C ,  5-O ) :   1.2200
B(  5-O ,  6-C ) :   0.9241 B(  6-C ,  7-C ) :   1.1723 B(  6-C , 15-H ) :   0.9145
B(  6-C , 16-H ) :   0.9375 B(  7-C , 17-H ) :   0.9461 B(  7-C , 18-H ) :   0.9445
B(  7-C , 19-H ) :   0.9492

Dispersion correction           -0.015169242
FINAL SINGLE POINT ENERGY      -385.459065633408

DIPOLE MOMENT
-------------

Method             : SCF
Type of density    : Electron Density
Multiplicity       :   1
Irrep              :   0
Energy             :  -385.5341674608008020 Eh
Relativity type    :
Basis              : AO
                                X                 Y                 Z
Electronic contribution:      2.175690083      -0.059957584      -1.047683035
Nuclear contribution   :     -1.898237657      -0.313489852       1.502034892
                        -----------------------------------------
Total Dipole Moment    :      0.277452426      -0.373447436       0.454351857
                        -----------------------------------------
Magnitude (a.u.)       :      0.650291047
Magnitude (Debye)      :      1.652908482

Rotational constants in cm-1:             0.168656             0.032446             0.032232
Rotational constants in MHz :          5056.167544           972.715589           966.294168

                             ****ORCA TERMINATED NORMALLY****
TOTAL RUN TIME: 0 days 0 hours 0 minutes 10 seconds 456 msec
