                         Program Version 6.0.0  -   RELEASE  -
|  1> ! pbe def2-sv(p) def2/J RI DEFGRID1 loosescf d4 GCP(DFT/SV(P)) printgap
|  2> %output
|  3>     printlevel normal
|  4> end
|  5> * xyz 0 1
|  6> C -3.8907985447 -0.8476611466 -0.5084038459
|  7> C -3.2999630861 0.002466417 0.6111667404
|  8> C -1.7969616551 -0.2166502943 0.8105957612
|  9> C -1.0003538229 0.3064204855 -0.3662940552
| 10> I 1.1429940756 0.0891783824 -0.0554209805
| 11> H -3.6636508311 -1.8991857287 -0.3483424235
| 12> H -4.9711964073 -0.7316951258 -0.5328615528
| 13> H -3.5000509539 -0.552618041 -1.4788420572
| 14> H -3.8017106855 -0.2484654843 1.5472653289
| 15> H -3.4878830126 1.0587149894 0.4072293942
| 16> H -1.4829986941 0.300582532 1.7200561462
| 17> H -1.6007646518 -1.2823461345 0.9474527718
| 18> H -1.1679498066 1.3687911537 -0.5231754999
| 19> H -1.2130587766 -0.240030939 -1.2799041163
| 20> *
| 21>
| 22>                          ****END OF INPUT****

CARTESIAN COORDINATES (ANGSTROEM)
---------------------------------
  C     -3.890799   -0.847661   -0.508404
  C     -3.299963    0.002466    0.611167
  C     -1.796962   -0.216650    0.810596
  C     -1.000354    0.306420   -0.366294
  I      1.142994    0.089178   -0.055421
  H     -3.663651   -1.899186   -0.348342
  H     -4.971196   -0.731695   -0.532862
  H     -3.500051   -0.552618   -1.478842
  H     -3.801711   -0.248465    1.547265
  H     -3.487883    1.058715    0.407229
  H     -1.482999    0.300583    1.720056
  H     -1.600765   -1.282346    0.947453
  H     -1.167950    1.368791   -0.523175
  H     -1.213059   -0.240031   -1.279904

 Total Charge           Charge          ....    0
 Multiplicity           Mult            ....    1
 Number of Electrons    NEL             ....   58
 Basis Dimension        Dim             ....  100

ORBITAL ENERGIES
----------------

  NO   OCC          E(Eh)            E(eV)
   0   2.0000      -9.934871      -270.3416
   1   2.0000      -9.900313      -269.4012
   2   2.0000      -9.897612      -269.3277
   3   2.0000      -9.884561      -268.9726
   4   2.0000      -6.593665      -179.4227
   5   2.0000      -4.665432      -126.9529
   6   2.0000      -4.648686      -126.4972
   7   2.0000      -4.648427      -126.4901
   8   2.0000      -1.801488       -49.0210
   9   2.0000      -1.797097       -48.9015
  10   2.0000      -1.796889       -48.8958
  11   2.0000      -1.783382       -48.5283
  12   2.0000      -1.783366       -48.5279
  13   2.0000      -0.739629       -20.1263
  14   2.0000      -0.676882       -18.4189
  15   2.0000      -0.617253       -16.7963
  16   2.0000      -0.566110       -15.4046
  17   2.0000      -0.519018       -14.1232
  18   2.0000      -0.433815       -11.8047
  19   2.0000      -0.414782       -11.2868
  20   2.0000      -0.391743       -10.6599
  21   2.0000      -0.364423        -9.9165
  22   2.0000      -0.341956        -9.3051
  23   2.0000      -0.332133        -9.0378
  24   2.0000      -0.302488        -8.2311
  25   2.0000      -0.299828        -8.1587
  26   2.0000      -0.287286        -7.8174
  27   2.0000      -0.217331        -5.9139
  28   2.0000      -0.216902        -5.9022
  29   0.0000      -0.057141        -1.5549
  30   0.0000       0.036925         1.0048
  31   0.0000       0.059449         1.6177
  32   0.0000       0.061115         1.6630
  33   0.0000       0.080391         2.1876

MULLIKEN ATOMIC CHARGES
-----------------------
   0 C :   -0.294564
   1 C :   -0.185469
   2 C :   -0.133672
   3 C :   -0.374869
   4 I :   -0.040440
   5 H :    0.104312
   6 H :    0.108865
   7 H :    0.108312
   8 H :    0.097150
   9 H :    0.090309
  10 H :    0.105436
  11 H :    0.102546
  12 H :    0.150629
  13 H :    0.161456
Sum of atomic charges:    0.0000000

LOEWDIN ATOMIC CHARGES
----------------------
   0 C :   -0.343959
   1 C :   -0.232317
   2 C :   -0.246464
   3 C :   -0.331170
   4 I :    0.049511
   5 H :    0.119894
   6 H :    0.123030
   7 H :    0.116760
   8 H :    0.122240
   9 H :    0.116475
  10 H :    0.123086
  11 H :    0.121524
  12 H :    0.130859
  13 H :    0.130532

  Mayer bond orders larger than 0.100000
B(  0-C ,  1-C ) :   1.1482 B(  0-C ,  5-H ) :   0.9544 B(  0-C ,  6-H ) :   0.9511
B(  0-C ,  7-H ) :   0.9527 B(  1-C ,  2-C ) :   1.1039 B(  1-C ,  8-H ) :   0.9249
B(  1-C ,  9-H ) :   0.9280 B(  2-C ,  3-C ) :   1.0934 B(  2-C , 10-H ) :   0.9229
B(  2-C , 11-H ) :   0.9233 B(  3-C ,  4-I ) :   1.0411 B(  3-C , 12-H ) :   0.9219
B(  3-C , 13-H ) :   0.9154

Dispersion correction           -0.010723555
FINAL SINGLE POINT ENERGY      -455.118228669390

DIPOLE MOMENT
-------------

Method             : SCF
Type of density    : Electron Density
Multiplicity       :   1
Irrep              :   0
Energy             :  -455.1670069416197748 Eh
Relativity type    :
Basis              : AO
                                X                 Y                 Z
Electronic contribution:    105.460294223       8.588279907      -4.463814423
Nuclear contribution   :   -106.278135986      -8.558778089       4.451455620
                        -----------------------------------------
Total Dipole Moment    :     -0.817841763       0.029501818      -0.012358803
                        -----------------------------------------
Magnitude (a.u.)       :      0.818467010
Magnitude (Debye)      :      2.080377809

Rotational constants in cm-1:             0.404393             0.026557             0.025899
Rotational constants in MHz :         12123.404842           796.143925           776.431734

                             ****ORCA TERMINATED NORMALLY****
TOTAL RUN TIME: 0 days 0 hours 0 minutes 14 seconds 113 msec
