                         Program Version 6.0.0  -   RELEASE  -
|  1> ! r2scan-3c def2/J RI DEFGRID2 scfconv6 printgap
|  2> %output
|  3>     printlevel normal
|  4> end
|  5> * xyz 0 1
|  6> C -2.3093043994 -1.3034088474 -0.1856071596
|  7> C -1.9115191571 -0.2107236823 0.8008736095
|  8> C -1.5573590802 1.1159372927 0.1269284381
|  9> C -0.3704387798 1.0091374685 -0.8400216972
| 10> C 0.8494995803 0.498087634 -0.1211068808
| 11> O 1.4200485728 1.0721938675 0.7829287222
| 12> O 1.2399431432 -0.6812254168 -0.5937431989
| 13> C 2.3863072185 -1.2949715998 0.0002578061
| 14> H -1.46089185 -1.6076399913 -0.7928400918
| 15> H -2.6702411646 -2.1771417584 0.351191767
| 16> H -3.1019907668 -0.9510948785 -0.8411445709
| 17> H -2.7404799107 -0.0307770032 1.4886898537
| 18> H -1.0604851258 -0.5489434894 1.398047932
| 19> H -1.3081313396 1.8460789537 0.8995406227
| 20> H -2.4213955196 1.4839216965 -0.4276650456
| 21> H -0.1409697473 2.0028268998 -1.2266146591
| 22> H -0.5971214366 0.3401762372 -1.6674069055
| 23> H 3.1764519345 -0.5557680312 0.1372329966
| 24> H 2.6935846675 -2.0772603743 -0.6867774989
| 25> H 2.1185686718 -1.7147686362 0.9705446667
| 26> *
| 27>
| 28>                          ****END OF INPUT****

CARTESIAN COORDINATES (ANGSTROEM)
---------------------------------
  C     -2.309304   -1.303409   -0.185607
  C     -1.911519   -0.210724    0.800874
  C     -1.557359    1.115937    0.126928
  C     -0.370439    1.009137   -0.840022
  C      0.849500    0.498088   -0.121107
  O      1.420049    1.072194    0.782929
  O      1.239943   -0.681225   -0.593743
  C      2.386307   -1.294972    0.000258
  H     -1.460892   -1.607640   -0.792840
  H     -2.670241   -2.177142    0.351192
  H     -3.101991   -0.951095   -0.841145
  H     -2.740480   -0.030777    1.488690
  H     -1.060485   -0.548943    1.398048
  H     -1.308131    1.846079    0.899541
  H     -2.421396    1.483922   -0.427665
  H     -0.140970    2.002827   -1.226615
  H     -0.597121    0.340176   -1.667407
  H      3.176452   -0.555768    0.137233
  H      2.693585   -2.077260   -0.686777
  H      2.118569   -1.714769    0.970545

 Total Charge           Charge          ....    0
 Multiplicity           Mult            ....    1
 Number of Electrons    NEL             ....   64
 Basis Dimension        Dim             ....  222

ORBITAL ENERGIES
----------------

  NO   OCC          E(Eh)            E(eV)
   0   2.0000     -19.000959      -517.0424
   1   2.0000     -18.929388      -515.0948
   2   2.0000     -10.152708      -276.2692
   3   2.0000     -10.087128      -274.4847
   4   2.0000     -10.041011      -273.2298
   5   2.0000     -10.034365      -273.0489
   6   2.0000     -10.028030      -272.8766
   7   2.0000     -10.017101      -272.5792
   8   2.0000      -1.074136       -29.2287
   9   2.0000      -0.976625       -26.5753
  10   2.0000      -0.779402       -21.2086
  11   2.0000      -0.724382       -19.7114
  12   2.0000      -0.686248       -18.6738
  13   2.0000      -0.623505       -16.9664
  14   2.0000      -0.556274       -15.1370
  15   2.0000      -0.523822       -14.2539
  16   2.0000      -0.469882       -12.7861
  17   2.0000      -0.458491       -12.4762
  18   2.0000      -0.447884       -12.1875
  19   2.0000      -0.427604       -11.6357
  20   2.0000      -0.419957       -11.4276
  21   2.0000      -0.389786       -10.6066
  22   2.0000      -0.376343       -10.2408
  23   2.0000      -0.362049        -9.8518
  24   2.0000      -0.356353        -9.6969
  25   2.0000      -0.339971        -9.2511
  26   2.0000      -0.320615        -8.7244
  27   2.0000      -0.303893        -8.2694
  28   2.0000      -0.298345        -8.1184
  29   2.0000      -0.297032        -8.0827
  30   2.0000      -0.274850        -7.4790
  31   2.0000      -0.236891        -6.4461
  32   0.0000      -0.017480        -0.4756
  33   0.0000       0.062242         1.6937
  34   0.0000       0.089430         2.4335
  35   0.0000       0.106424         2.8959
  36   0.0000       0.117942         3.2094

MULLIKEN ATOMIC CHARGES
-----------------------
   0 C :   -0.506059
   1 C :   -0.209585
   2 C :   -0.289596
   3 C :   -0.324017
   4 C :    0.340100
   5 O :   -0.413478
   6 O :   -0.179140
   7 C :   -0.296454
   8 H :    0.161615
   9 H :    0.146886
  10 H :    0.146583
  11 H :    0.145421
  12 H :    0.147200
  13 H :    0.165711
  14 H :    0.151699
  15 H :    0.165971
  16 H :    0.170848
  17 H :    0.170654
  18 H :    0.150449
  19 H :    0.155192
Sum of atomic charges:   -0.0000000

LOEWDIN ATOMIC CHARGES
----------------------
   0 C :   -0.425608
   1 C :   -0.311395
   2 C :   -0.286090
   3 C :   -0.230953
   4 C :    0.348888
   5 O :   -0.426428
   6 O :   -0.607301
   7 C :   -0.045832
   8 H :    0.154366
   9 H :    0.152289
  10 H :    0.150120
  11 H :    0.154369
  12 H :    0.157878
  13 H :    0.167935
  14 H :    0.156636
  15 H :    0.181519
  16 H :    0.177356
  17 H :    0.182546
  18 H :    0.176078
  19 H :    0.173627

  Mayer bond orders larger than 0.100000
B(  0-C ,  1-C ) :   0.8883 B(  0-C ,  8-H ) :   0.9745 B(  0-C ,  9-H ) :   0.9692
B(  0-C , 10-H ) :   0.9827 B(  1-C ,  2-C ) :   0.9018 B(  1-C , 11-H ) :   0.9596
B(  1-C , 12-H ) :   0.9656 B(  2-C ,  3-C ) :   0.8751 B(  2-C , 13-H ) :   0.9720
B(  2-C , 14-H ) :   0.9830 B(  3-C ,  4-C ) :   0.9263 B(  3-C , 15-H ) :   0.9390
B(  3-C , 16-H ) :   1.0041 B(  4-C ,  5-O ) :   1.8328 B(  4-C ,  6-O ) :   1.0578
B(  6-O ,  7-C ) :   0.8505 B(  7-C , 17-H ) :   0.9640 B(  7-C , 18-H ) :   0.9698
B(  7-C , 19-H ) :   0.9598

Dispersion correction           -0.005441327
FINAL SINGLE POINT ENERGY      -386.230809827632

DIPOLE MOMENT
-------------

Method             : SCF
Type of density    : Electron Density
Multiplicity       :   1
Irrep              :   0
Energy             :  -386.2374276674352132 Eh
Relativity type    :
Basis              : AO
                                X                 Y                 Z
Electronic contribution:      6.787610822       3.174426351      -0.069962896
Nuclear contribution   :     -7.009098913      -3.737854020      -0.369835414
                        -----------------------------------------
Total Dipole Moment    :     -0.221488091      -0.563427670      -0.439798310
                        -----------------------------------------
Magnitude (a.u.)       :      0.748284883
Magnitude (Debye)      :      1.901989020

Rotational constants in cm-1:             0.100899             0.044980             0.037061
Rotational constants in MHz :          3024.879707          1348.459846          1111.048124

                             ****ORCA TERMINATED NORMALLY****
TOTAL RUN TIME: 0 days 0 hours 0 minutes 26 seconds 984 msec
