                         Program Version 6.0.0  -   RELEASE  -
|  1> ! r2scan-3c def2/J RI DEFGRID2 scfconv6 printgap
|  2> %output
|  3>     printlevel normal
|  4> end
|  5> %cpcm
|  6>     smd true
|  7>     smdsolvent "water"
|  8> end
|  9> * xyz 0 1
| 10> C -2.3093043994 -1.3034088474 -0.1856071596
| 11> C -1.9115191571 -0.2107236823 0.8008736095
| 12> C -1.5573590802 1.1159372927 0.1269284381
| 13> C -0.3704387798 1.0091374685 -0.8400216972
| 14> C 0.8494995803 0.498087634 -0.1211068808
| 15> O 1.4200485728 1.0721938675 0.7829287222
| 16> O 1.2399431432 -0.6812254168 -0.5937431989
| 17> C 2.3863072185 -1.2949715998 0.0002578061
| 18> H -1.46089185 -1.6076399913 -0.7928400918
| 19> H -2.6702411646 -2.1771417584 0.351191767
| 20> H -3.1019907668 -0.9510948785 -0.8411445709
| 21> H -2.7404799107 -0.0307770032 1.4886898537
| 22> H -1.0604851258 -0.5489434894 1.398047932
| 23> H -1.3081313396 1.8460789537 0.8995406227
| 24> H -2.4213955196 1.4839216965 -0.4276650456
| 25> H -0.1409697473 2.0028268998 -1.2266146591
| 26> H -0.5971214366 0.3401762372 -1.6674069055
| 27> H 3.1764519345 -0.5557680312 0.1372329966
| 28> H 2.6935846675 -2.0772603743 -0.6867774989
| 29> H 2.1185686718 -1.7147686362 0.9705446667
| 30> *
| 31>
| 32>                          ****END OF INPUT****

CARTESIAN COORDINATES (ANGSTROEM)
---------------------------------
  C     -2.309304   -1.303409   -0.185607
  C     -1.911519   -0.210724    0.800874
  C     -1.557359    1.115937    0.126928
  C     -0.370439    1.009137   -0.840022
  C      0.849500    0.498088   -0.121107
  O      1.420049    1.072194    0.782929
  O      1.239943   -0.681225   -0.593743
  C      2.386307   -1.294972    0.000258
  H     -1.460892   -1.607640   -0.792840
  H     -2.670241   -2.177142    0.351192
  H     -3.101991   -0.951095   -0.841145
  H     -2.740480   -0.030777    1.488690
  H     -1.060485   -0.548943    1.398048
  H     -1.308131    1.846079    0.899541
  H     -2.421396    1.483922   -0.427665
  H     -0.140970    2.002827   -1.226615
  H     -0.597121    0.340176   -1.667407
  H      3.176452   -0.555768    0.137233
  H      2.693585   -2.077260   -0.686777
  H      2.118569   -1.714769    0.970545

 Total Charge           Charge          ....    0
 Multiplicity           Mult            ....    1
 Number of Electrons    NEL             ....   64
 Basis Dimension        Dim             ....  222

ORBITAL ENERGIES
----------------

  NO   OCC          E(Eh)            E(eV)
   0   2.0000     -19.005429      -517.1640
   1   2.0000     -18.944358      -515.5022
   2   2.0000     -10.162388      -276.5326
   3   2.0000     -10.076161      -274.1863
   4   2.0000     -10.035035      -273.0672
   5   2.0000     -10.027121      -272.8518
   6   2.0000     -10.019916      -272.6558
   7   2.0000     -10.008270      -272.3389
   8   2.0000      -1.080155       -29.3925
   9   2.0000      -0.989423       -26.9236
  10   2.0000      -0.773632       -21.0516
  11   2.0000      -0.719160       -19.5693
  12   2.0000      -0.679327       -18.4854
  13   2.0000      -0.616377       -16.7725
  14   2.0000      -0.550183       -14.9712
  15   2.0000      -0.521023       -14.1777
  16   2.0000      -0.470009       -12.7896
  17   2.0000      -0.461088       -12.5468
  18   2.0000      -0.449921       -12.2430
  19   2.0000      -0.421390       -11.4666
  20   2.0000      -0.418600       -11.3907
  21   2.0000      -0.386458       -10.5161
  22   2.0000      -0.373151       -10.1539
  23   2.0000      -0.355760        -9.6807
  24   2.0000      -0.348977        -9.4962
  25   2.0000      -0.337261        -9.1773
  26   2.0000      -0.320799        -8.7294
  27   2.0000      -0.296888        -8.0787
  28   2.0000      -0.291529        -7.9329
  29   2.0000      -0.289695        -7.8830
  30   2.0000      -0.281124        -7.6498
  31   2.0000      -0.252468        -6.8700
  32   0.0000      -0.024631        -0.6703
  33   0.0000       0.067436         1.8350
  34   0.0000       0.098195         2.6720
  35   0.0000       0.117560         3.1990
  36   0.0000       0.122655         3.3376

MULLIKEN ATOMIC CHARGES
-----------------------
   0 C :   -0.532923
   1 C :   -0.220908
   2 C :   -0.304318
   3 C :   -0.340160
   4 C :    0.380859
   5 O :   -0.499450
   6 O :   -0.193652
   7 C :   -0.328827
   8 H :    0.163491
   9 H :    0.157618
  10 H :    0.159624
  11 H :    0.156202
  12 H :    0.151881
  13 H :    0.165001
  14 H :    0.170987
  15 H :    0.191756
  16 H :    0.186710
  17 H :    0.177580
  18 H :    0.178029
  19 H :    0.180502
Sum of atomic charges:   -0.0000000

LOEWDIN ATOMIC CHARGES
----------------------
   0 C :   -0.431156
   1 C :   -0.313746
   2 C :   -0.286122
   3 C :   -0.228677
   4 C :    0.358686
   5 O :   -0.487950
   6 O :   -0.607550
   7 C :   -0.042997
   8 H :    0.154484
   9 H :    0.154706
  10 H :    0.154384
  11 H :    0.157703
  12 H :    0.158041
  13 H :    0.165534
  14 H :    0.164337
  15 H :    0.190198
  16 H :    0.184836
  17 H :    0.185023
  18 H :    0.188176
  19 H :    0.182092

  Mayer bond orders larger than 0.100000
B(  0-C ,  1-C ) :   0.8866 B(  0-C ,  8-H ) :   0.9736 B(  0-C ,  9-H ) :   0.9672
B(  0-C , 10-H ) :   0.9789 B(  1-C ,  2-C ) :   0.8941 B(  1-C , 11-H ) :   0.9578
B(  1-C , 12-H ) :   0.9667 B(  2-C ,  3-C ) :   0.8585 B(  2-C , 13-H ) :   0.9774
B(  2-C , 14-H ) :   0.9763 B(  3-C ,  4-C ) :   0.9283 B(  3-C , 15-H ) :   0.9340
B(  3-C , 16-H ) :   0.9942 B(  4-C ,  5-O ) :   1.7645 B(  4-C ,  6-O ) :   1.0830
B(  6-O ,  7-C ) :   0.8319 B(  7-C , 17-H ) :   0.9595 B(  7-C , 18-H ) :   0.9598
B(  7-C , 19-H ) :   0.9534

Dispersion correction           -0.005441327
FINAL SINGLE POINT ENERGY      -386.235739942336

DIPOLE MOMENT
-------------

Method             : SCF
Type of density    : Electron Density
Multiplicity       :   1
Irrep              :   0
Energy             :  -386.2423577821388676 Eh
Relativity type    :
Basis              : AO
                                X                 Y                 Z
Electronic contribution:      6.654458161       2.965268072      -0.312613245
Nuclear contribution   :     -7.009098913      -3.737854020      -0.369835414
                        -----------------------------------------
Total Dipole Moment    :     -0.354640752      -0.772585948      -0.682448659
                        -----------------------------------------
Magnitude (a.u.)       :      1.090135442
Magnitude (Debye)      :      2.770904086

Rotational constants in cm-1:             0.100899             0.044980             0.037061
Rotational constants in MHz :          3024.879707          1348.459846          1111.048124

                             ****ORCA TERMINATED NORMALLY****
TOTAL RUN TIME: 0 days 0 hours 0 minutes 35 seconds 253 msec
