                         Program Version 6.0.0  -   RELEASE  -
|  1> ! pbe def2-sv(p) def2/J RI DEFGRID1 loosescf d4 GCP(DFT/SV(P)) printgap
|  2> %output
|  3>     printlevel normal
|  4> end
|  5> * xyz 0 1
|  6> C -3.2978707247 -0.8454152412 -0.3440499062
|  7> C -1.8980007313 -0.6203298369 0.2145013233
|  8> C -1.5033374685 0.8542976546 0.1647051782
|  9> C -0.1156095322 1.0944025773 0.7669189761
| 10> C 0.9526736752 0.4452028811 -0.0733018893
| 11> O 1.1040392367 0.6137446486 -1.2650410313
| 12> O 1.7307649873 -0.3531139731 0.6504855553
| 13> C 2.7987689024 -1.027465518 -0.020135133
| 14> H -3.5606108776 -1.8992343563 -0.3023582265
| 15> H -4.0302386272 -0.2837891603 0.2307503679
| 16> H -3.3499161765 -0.5182737202 -1.3799057193
| 17> H -1.8574905158 -0.9709999012 1.2479144884
| 18> H -1.1771935658 -1.2048652421 -0.3633017063
| 19> H -2.2356819567 1.4453019491 0.7158601843
| 20> H -1.4980039911 1.1943585539 -0.8729027876
| 21> H -0.0516615623 0.6972823313 1.7792224314
| 22> H 0.0893314901 2.1661725516 0.7852935338
| 23> H 2.4173898983 -1.5506568845 -0.8978734616
| 24> H 3.2081139611 -1.7236399261 0.7049043342
| 25> H 3.5521043801 -0.3054732884 -0.3368967536
| 26> *
| 27>
| 28>                          ****END OF INPUT****

CARTESIAN COORDINATES (ANGSTROEM)
---------------------------------
  C     -3.297871   -0.845415   -0.344050
  C     -1.898001   -0.620330    0.214501
  C     -1.503337    0.854298    0.164705
  C     -0.115610    1.094403    0.766919
  C      0.952674    0.445203   -0.073302
  O      1.104039    0.613745   -1.265041
  O      1.730765   -0.353114    0.650486
  C      2.798769   -1.027466   -0.020135
  H     -3.560611   -1.899234   -0.302358
  H     -4.030239   -0.283789    0.230750
  H     -3.349916   -0.518274   -1.379906
  H     -1.857491   -0.971000    1.247914
  H     -1.177194   -1.204865   -0.363302
  H     -2.235682    1.445302    0.715860
  H     -1.498004    1.194359   -0.872903
  H     -0.051662    0.697282    1.779222
  H      0.089331    2.166173    0.785294
  H      2.417390   -1.550657   -0.897873
  H      3.208114   -1.723640    0.704904
  H      3.552104   -0.305473   -0.336897

 Total Charge           Charge          ....    0
 Multiplicity           Mult            ....    1
 Number of Electrons    NEL             ....   64
 Basis Dimension        Dim             ....  136

ORBITAL ENERGIES
----------------

  NO   OCC          E(Eh)            E(eV)
   0   2.0000     -18.799759      -511.5674
   1   2.0000     -18.731436      -509.7083
   2   2.0000     -10.004037      -272.2237
   3   2.0000      -9.941511      -270.5223
   4   2.0000      -9.896416      -269.2952
   5   2.0000      -9.889067      -269.0952
   6   2.0000      -9.885203      -268.9901
   7   2.0000      -9.874690      -268.7040
   8   2.0000      -1.005017       -27.3479
   9   2.0000      -0.908271       -24.7153
  10   2.0000      -0.730937       -19.8898
  11   2.0000      -0.684594       -18.6288
  12   2.0000      -0.647014       -17.6061
  13   2.0000      -0.576665       -15.6918
  14   2.0000      -0.525882       -14.3100
  15   2.0000      -0.499417       -13.5898
  16   2.0000      -0.451854       -12.2956
  17   2.0000      -0.436690       -11.8829
  18   2.0000      -0.422666       -11.5013
  19   2.0000      -0.402555       -10.9541
  20   2.0000      -0.393557       -10.7092
  21   2.0000      -0.380737       -10.3604
  22   2.0000      -0.369017       -10.0415
  23   2.0000      -0.338031        -9.1983
  24   2.0000      -0.335694        -9.1347
  25   2.0000      -0.322726        -8.7818
  26   2.0000      -0.304173        -8.2770
  27   2.0000      -0.293595        -7.9891
  28   2.0000      -0.288438        -7.8488
  29   2.0000      -0.283862        -7.7243
  30   2.0000      -0.257768        -7.0142
  31   2.0000      -0.217776        -5.9260
  32   0.0000      -0.019925        -0.5422
  33   0.0000       0.039545         1.0761
  34   0.0000       0.055807         1.5186
  35   0.0000       0.063176         1.7191
  36   0.0000       0.074835         2.0364

MULLIKEN ATOMIC CHARGES
-----------------------
   0 C :   -0.255895
   1 C :   -0.211514
   2 C :   -0.195409
   3 C :   -0.096242
   4 C :    0.081029
   5 O :   -0.212837
   6 O :   -0.237015
   7 C :   -0.111519
   8 H :    0.102566
   9 H :    0.096560
  10 H :    0.101503
  11 H :    0.084109
  12 H :    0.102154
  13 H :    0.086040
  14 H :    0.103132
  15 H :    0.091128
  16 H :    0.111947
  17 H :    0.120777
  18 H :    0.121216
  19 H :    0.118272
Sum of atomic charges:    0.0000000

LOEWDIN ATOMIC CHARGES
----------------------
   0 C :   -0.338638
   1 C :   -0.236620
   2 C :   -0.220550
   3 C :   -0.245242
   4 C :    0.033947
   5 O :   -0.172264
   6 O :   -0.073088
   7 C :   -0.204402
   8 H :    0.119132
   9 H :    0.116500
  10 H :    0.119356
  11 H :    0.114139
  12 H :    0.117560
  13 H :    0.116826
  14 H :    0.123831
  15 H :    0.127246
  16 H :    0.142521
  17 H :    0.119873
  18 H :    0.120397
  19 H :    0.119478

  Mayer bond orders larger than 0.100000
B(  0-C ,  1-C ) :   1.1576 B(  0-C ,  8-H ) :   0.9532 B(  0-C ,  9-H ) :   0.9546
B(  0-C , 10-H ) :   0.9545 B(  1-C ,  2-C ) :   1.1344 B(  1-C , 11-H ) :   0.9259
B(  1-C , 12-H ) :   0.9194 B(  2-C ,  3-C ) :   1.1122 B(  2-C , 13-H ) :   0.9229
B(  2-C , 14-H ) :   0.9139 B(  3-C ,  4-C ) :   1.0188 B(  3-C , 15-H ) :   0.9069
B(  3-C , 16-H ) :   0.8916 B(  4-C ,  5-O ) :   2.0483 B(  4-C ,  6-O ) :   1.2201
B(  6-O ,  7-C ) :   0.9401 B(  7-C , 17-H ) :   0.9482 B(  7-C , 18-H ) :   0.9595
B(  7-C , 19-H ) :   0.9549

Dispersion correction           -0.015108585
FINAL SINGLE POINT ENERGY      -385.453633795830

DIPOLE MOMENT
-------------

Method             : SCF
Type of density    : Electron Density
Multiplicity       :   1
Irrep              :   0
Energy             :  -385.5285764006835052 Eh
Relativity type    :
Basis              : AO
                                X                 Y                 Z
Electronic contribution:      8.050564953       2.463510033      -0.639765895
Nuclear contribution   :     -7.926619342      -2.767308157       1.220548633
                        -----------------------------------------
Total Dipole Moment    :      0.123945611      -0.303798123       0.580782738
                        -----------------------------------------
Magnitude (a.u.)       :      0.667056522
Magnitude (Debye)      :      1.695522932

Rotational constants in cm-1:             0.127499             0.033230             0.031485
Rotational constants in MHz :          3822.321532           996.203748           943.907374

                             ****ORCA TERMINATED NORMALLY****
TOTAL RUN TIME: 0 days 0 hours 0 minutes 10 seconds 793 msec
