                         Program Version 6.0.0  -   RELEASE  -
|  1> ! r2scan-3c def2/J RI DEFGRID2 scfconv6 printgap
|  2> %output
|  3>     printlevel normal
|  4> end
|  5> * xyz 0 1
|  6> C 1.7952515493 -0.8191668622 0.3581530024
|  7> C 1.210550223 0.5650109876 0.0936912214
|  8> C 0.0295942071 0.537367114 -0.8867940511
|  9> C -1.343257831 0.5252124562 -0.2100644128
| 10> N -1.5851491182 -0.7170314739 0.5126354847
| 11> H 1.0291220252 -1.5078907125 0.7021530867
| 12> H 2.225947576 -1.2233508268 -0.5550891896
| 13> H 2.5791474196 -0.7631016527 1.1105407949
| 14> H 0.891117177 1.0169656499 1.0360412415
| 15> H 2.000650784 1.1995375302 -0.3134777683
| 16> H 0.0645511076 1.4225905254 -1.5243242499
| 17> H 0.1091081286 -0.3416267991 -1.5263811597
| 18> H -2.1126568669 0.6039602929 -0.9839934352
| 19> H -1.4276410592 1.418239883 0.4351427733
| 20> H -2.5335467666 -0.7235274675 0.8703162968
| 21> H -0.9620860084 -0.7711408649 1.3115625267
| 22> *
| 23>
| 24>                          ****END OF INPUT****

CARTESIAN COORDINATES (ANGSTROEM)
---------------------------------
  C      1.795252   -0.819167    0.358153
  C      1.210550    0.565011    0.093691
  C      0.029594    0.537367   -0.886794
  C     -1.343258    0.525212   -0.210064
  N     -1.585149   -0.717031    0.512635
  H      1.029122   -1.507891    0.702153
  H      2.225948   -1.223351   -0.555089
  H      2.579147   -0.763102    1.110541
  H      0.891117    1.016966    1.036041
  H      2.000651    1.199538   -0.313478
  H      0.064551    1.422591   -1.524324
  H      0.109108   -0.341627   -1.526381
  H     -2.112657    0.603960   -0.983993
  H     -1.427641    1.418240    0.435143
  H     -2.533547   -0.723527    0.870316
  H     -0.962086   -0.771141    1.311563

 Total Charge           Charge          ....    0
 Multiplicity           Mult            ....    1
 Number of Electrons    NEL             ....   42
 Basis Dimension        Dim             ....  155

ORBITAL ENERGIES
----------------

  NO   OCC          E(Eh)            E(eV)
   0   2.0000     -14.134644      -384.6232
   1   2.0000     -10.047951      -273.4187
   2   2.0000     -10.023614      -272.7564
   3   2.0000     -10.018628      -272.6207
   4   2.0000     -10.012704      -272.4595
   5   2.0000      -0.846353       -23.0304
   6   2.0000      -0.748129       -20.3576
   7   2.0000      -0.673331       -18.3223
   8   2.0000      -0.587784       -15.9944
   9   2.0000      -0.533073       -14.5057
  10   2.0000      -0.465044       -12.6545
  11   2.0000      -0.433273       -11.7900
  12   2.0000      -0.402862       -10.9624
  13   2.0000      -0.394792       -10.7428
  14   2.0000      -0.366159        -9.9637
  15   2.0000      -0.345728        -9.4077
  16   2.0000      -0.335391        -9.1265
  17   2.0000      -0.300785        -8.1848
  18   2.0000      -0.292332        -7.9548
  19   2.0000      -0.283049        -7.7022
  20   2.0000      -0.205026        -5.5790
  21   0.0000       0.067962         1.8493
  22   0.0000       0.105252         2.8641
  23   0.0000       0.113728         3.0947
  24   0.0000       0.124048         3.3755
  25   0.0000       0.134576         3.6620

MULLIKEN ATOMIC CHARGES
-----------------------
   0 C :   -0.497777
   1 C :   -0.253118
   2 C :   -0.203211
   3 C :   -0.245369
   4 N :   -0.563933
   5 H :    0.149953
   6 H :    0.146916
   7 H :    0.143376
   8 H :    0.141086
   9 H :    0.140067
  10 H :    0.140962
  11 H :    0.147055
  12 H :    0.134491
  13 H :    0.132182
  14 H :    0.240706
  15 H :    0.246613
Sum of atomic charges:   -0.0000000

LOEWDIN ATOMIC CHARGES
----------------------
   0 C :   -0.427372
   1 C :   -0.321928
   2 C :   -0.289851
   3 C :   -0.077689
   4 N :   -0.746452
   5 H :    0.152407
   6 H :    0.150690
   7 H :    0.148079
   8 H :    0.150740
   9 H :    0.152521
  10 H :    0.155990
  11 H :    0.163552
  12 H :    0.171200
  13 H :    0.146742
  14 H :    0.236065
  15 H :    0.235305

  Mayer bond orders larger than 0.100000
B(  0-C ,  1-C ) :   0.9172 B(  0-C ,  5-H ) :   0.9788 B(  0-C ,  6-H ) :   0.9813
B(  0-C ,  7-H ) :   0.9755 B(  1-C ,  2-C ) :   0.8493 B(  1-C ,  8-H ) :   0.9829
B(  1-C ,  9-H ) :   0.9641 B(  2-C ,  3-C ) :   0.9451 B(  2-C , 10-H ) :   0.9692
B(  2-C , 11-H ) :   0.9669 B(  3-C ,  4-N ) :   0.9319 B(  3-C , 12-H ) :   0.9727
B(  3-C , 13-H ) :   0.9894 B(  4-N , 14-H ) :   0.9195 B(  4-N , 15-H ) :   0.9166

Dispersion correction           -0.003564345
FINAL SINGLE POINT ENERGY      -213.719391703772

DIPOLE MOMENT
-------------

Method             : SCF
Type of density    : Electron Density
Multiplicity       :   1
Irrep              :   0
Energy             :  -213.7264663939861293 Eh
Relativity type    :
Basis              : AO
                                X                 Y                 Z
Electronic contribution:     -1.823133854       0.054752929      -0.252724021
Nuclear contribution   :      1.739804026       0.306290503       0.530508966
                        -----------------------------------------
Total Dipole Moment    :     -0.083329829       0.361043432       0.277784945
                        -----------------------------------------
Magnitude (a.u.)       :      0.463099013
Magnitude (Debye)      :      1.177104145

Rotational constants in cm-1:             0.259311             0.106753             0.085459
Rotational constants in MHz :          7773.956481          3200.365544          2561.983825

                             ****ORCA TERMINATED NORMALLY****
TOTAL RUN TIME: 0 days 0 hours 0 minutes 14 seconds 849 msec
