                         Program Version 6.0.0  -   RELEASE  -
|  1> ! r2scan-3c def2/J RI DEFGRID2 scfconv6 printgap
|  2> %output
|  3>     printlevel normal
|  4> end
|  5> %cpcm
|  6>     smd true
|  7>     smdsolvent "water"
|  8> end
|  9> * xyz 0 1
| 10> C 1.7952515493 -0.8191668622 0.3581530024
| 11> C 1.210550223 0.5650109876 0.0936912214
| 12> C 0.0295942071 0.537367114 -0.8867940511
| 13> C -1.343257831 0.5252124562 -0.2100644128
| 14> N -1.5851491182 -0.7170314739 0.5126354847
| 15> H 1.0291220252 -1.5078907125 0.7021530867
| 16> H 2.225947576 -1.2233508268 -0.5550891896
| 17> H 2.5791474196 -0.7631016527 1.1105407949
| 18> H 0.891117177 1.0169656499 1.0360412415
| 19> H 2.000650784 1.1995375302 -0.3134777683
| 20> H 0.0645511076 1.4225905254 -1.5243242499
| 21> H 0.1091081286 -0.3416267991 -1.5263811597
| 22> H -2.1126568669 0.6039602929 -0.9839934352
| 23> H -1.4276410592 1.418239883 0.4351427733
| 24> H -2.5335467666 -0.7235274675 0.8703162968
| 25> H -0.9620860084 -0.7711408649 1.3115625267
| 26> *
| 27>
| 28>                          ****END OF INPUT****

CARTESIAN COORDINATES (ANGSTROEM)
---------------------------------
  C      1.795252   -0.819167    0.358153
  C      1.210550    0.565011    0.093691
  C      0.029594    0.537367   -0.886794
  C     -1.343258    0.525212   -0.210064
  N     -1.585149   -0.717031    0.512635
  H      1.029122   -1.507891    0.702153
  H      2.225948   -1.223351   -0.555089
  H      2.579147   -0.763102    1.110541
  H      0.891117    1.016966    1.036041
  H      2.000651    1.199538   -0.313478
  H      0.064551    1.422591   -1.524324
  H      0.109108   -0.341627   -1.526381
  H     -2.112657    0.603960   -0.983993
  H     -1.427641    1.418240    0.435143
  H     -2.533547   -0.723527    0.870316
  H     -0.962086   -0.771141    1.311563

 Total Charge           Charge          ....    0
 Multiplicity           Mult            ....    1
 Number of Electrons    NEL             ....   42
 Basis Dimension        Dim             ....  155

ORBITAL ENERGIES
----------------

  NO   OCC          E(Eh)            E(eV)
   0   2.0000     -14.127653      -384.4330
   1   2.0000     -10.041126      -273.2329
   2   2.0000     -10.015874      -272.5458
   3   2.0000     -10.012817      -272.4626
   4   2.0000     -10.006488      -272.2904
   5   2.0000      -0.839817       -22.8526
   6   2.0000      -0.741559       -20.1788
   7   2.0000      -0.667217       -18.1559
   8   2.0000      -0.581335       -15.8189
   9   2.0000      -0.526830       -14.3358
  10   2.0000      -0.457111       -12.4386
  11   2.0000      -0.427295       -11.6273
  12   2.0000      -0.395363       -10.7584
  13   2.0000      -0.388520       -10.5722
  14   2.0000      -0.359399        -9.7797
  15   2.0000      -0.339824        -9.2471
  16   2.0000      -0.329451        -8.9648
  17   2.0000      -0.294792        -8.0217
  18   2.0000      -0.285437        -7.7671
  19   2.0000      -0.275987        -7.5100
  20   2.0000      -0.204824        -5.5735
  21   0.0000       0.080357         2.1866
  22   0.0000       0.114065         3.1039
  23   0.0000       0.122414         3.3311
  24   0.0000       0.130021         3.5380
  25   0.0000       0.139457         3.7948

MULLIKEN ATOMIC CHARGES
-----------------------
   0 C :   -0.544616
   1 C :   -0.236188
   2 C :   -0.238861
   3 C :   -0.263378
   4 N :   -0.650521
   5 H :    0.156699
   6 H :    0.157718
   7 H :    0.153692
   8 H :    0.152588
   9 H :    0.148827
  10 H :    0.154707
  11 H :    0.147284
  12 H :    0.148892
  13 H :    0.141527
  14 H :    0.282418
  15 H :    0.289213
Sum of atomic charges:   -0.0000000

LOEWDIN ATOMIC CHARGES
----------------------
   0 C :   -0.435677
   1 C :   -0.322814
   2 C :   -0.294886
   3 C :   -0.080285
   4 N :   -0.767812
   5 H :    0.152218
   6 H :    0.151703
   7 H :    0.151421
   8 H :    0.155777
   9 H :    0.154468
  10 H :    0.160011
  11 H :    0.160202
  12 H :    0.173716
  13 H :    0.151810
  14 H :    0.245343
  15 H :    0.244807

  Mayer bond orders larger than 0.100000
B(  0-C ,  1-C ) :   0.8968 B(  0-C ,  5-H ) :   0.9805 B(  0-C ,  6-H ) :   0.9798
B(  0-C ,  7-H ) :   0.9716 B(  1-C ,  2-C ) :   0.8445 B(  1-C ,  8-H ) :   0.9780
B(  1-C ,  9-H ) :   0.9647 B(  2-C ,  3-C ) :   0.9326 B(  2-C , 10-H ) :   0.9679
B(  2-C , 11-H ) :   0.9734 B(  3-C ,  4-N ) :   0.9446 B(  3-C , 12-H ) :   0.9746
B(  3-C , 13-H ) :   0.9915 B(  4-N , 14-H ) :   0.9029 B(  4-N , 15-H ) :   0.9012

Dispersion correction           -0.003564345
FINAL SINGLE POINT ENERGY      -213.724390605733

DIPOLE MOMENT
-------------

Method             : SCF
Type of density    : Electron Density
Multiplicity       :   1
Irrep              :   0
Energy             :  -213.7314652959468901 Eh
Relativity type    :
Basis              : AO
                                X                 Y                 Z
Electronic contribution:     -1.850725238       0.229885526      -0.103602720
Nuclear contribution   :      1.739804026       0.306290503       0.530508966
                        -----------------------------------------
Total Dipole Moment    :     -0.110921212       0.536176029       0.426906246
                        -----------------------------------------
Magnitude (a.u.)       :      0.694288983
Magnitude (Debye)      :      1.764742349

Rotational constants in cm-1:             0.259311             0.106753             0.085459
Rotational constants in MHz :          7773.956481          3200.365544          2561.983825

                             ****ORCA TERMINATED NORMALLY****
TOTAL RUN TIME: 0 days 0 hours 0 minutes 19 seconds 51 msec
