                         Program Version 6.0.0  -   RELEASE  -
|  1> ! pbe def2-sv(p) def2/J RI DEFGRID1 loosescf d4 GCP(DFT/SV(P)) printgap
|  2> %output
|  3>     printlevel normal
|  4> end
|  5> * xyz 0 1
|  6> C 2.9167989863 -0.0334854022 -0.6708445629
|  7> C 1.882675761 -0.6995382542 0.2303059702
|  8> C 0.9636456031 0.2966842437 0.9399577987
|  9> C 0.1174743509 1.1705830591 0.0116910919
| 10> C -0.8666105655 0.3960614628 -0.8462468468
| 11> Cl -2.0859665624 -0.4601703627 0.1662409585
| 12> H 3.4794524774 0.7127928662 -0.1146590263
| 13> H 2.4447424977 0.450965575 -1.5212371979
| 14> H 3.6149083987 -0.7754806434 -1.0508844788
| 15> H 1.288367457 -1.4049547653 -0.3527853445
| 16> H 2.4032879442 -1.2773416329 0.9974665053
| 17> H 1.5745198867 0.955425504 1.5605166004
| 18> H 0.2958548891 -0.2565033744 1.6040300086
| 19> H 0.7663380911 1.7309425125 -0.6625512075
| 20> H -0.4336545717 1.890203194 0.6198909786
| 21> H -1.4340476475 1.0625064149 -1.4930152749
| 22> H -0.3765835079 -0.371693659 -1.4405423886
| 23> *
| 24>
| 25>                          ****END OF INPUT****

CARTESIAN COORDINATES (ANGSTROEM)
---------------------------------
  C      2.916799   -0.033485   -0.670845
  C      1.882676   -0.699538    0.230306
  C      0.963646    0.296684    0.939958
  C      0.117474    1.170583    0.011691
  C     -0.866611    0.396061   -0.846247
  Cl    -2.085967   -0.460170    0.166241
  H      3.479452    0.712793   -0.114659
  H      2.444742    0.450966   -1.521237
  H      3.614908   -0.775481   -1.050884
  H      1.288367   -1.404955   -0.352785
  H      2.403288   -1.277342    0.997467
  H      1.574520    0.955426    1.560517
  H      0.295855   -0.256503    1.604030
  H      0.766338    1.730943   -0.662551
  H     -0.433655    1.890203    0.619891
  H     -1.434048    1.062506   -1.493015
  H     -0.376584   -0.371694   -1.440542

 Total Charge           Charge          ....    0
 Multiplicity           Mult            ....    1
 Number of Electrons    NEL             ....   58
 Basis Dimension        Dim             ....  110

ORBITAL ENERGIES
----------------

  NO   OCC          E(Eh)            E(eV)
   0   2.0000    -100.616246     -2737.9072
   1   2.0000      -9.938706      -270.4459
   2   2.0000      -9.894847      -269.2525
   3   2.0000      -9.885130      -268.9881
   4   2.0000      -9.883493      -268.9435
   5   2.0000      -9.876573      -268.7552
   6   2.0000      -9.151811      -249.0334
   7   2.0000      -6.983313      -190.0256
   8   2.0000      -6.971589      -189.7066
   9   2.0000      -6.971419      -189.7019
  10   2.0000      -0.775600       -21.1052
  11   2.0000      -0.718745       -19.5580
  12   2.0000      -0.663564       -18.0565
  13   2.0000      -0.604858       -16.4590
  14   2.0000      -0.552314       -15.0292
  15   2.0000      -0.493954       -13.4412
  16   2.0000      -0.437104       -11.8942
  17   2.0000      -0.426715       -11.6115
  18   2.0000      -0.387841       -10.5537
  19   2.0000      -0.380540       -10.3550
  20   2.0000      -0.376001       -10.2315
  21   2.0000      -0.338877        -9.2213
  22   2.0000      -0.329742        -8.9727
  23   2.0000      -0.326567        -8.8863
  24   2.0000      -0.289544        -7.8789
  25   2.0000      -0.284297        -7.7361
  26   2.0000      -0.284169        -7.7326
  27   2.0000      -0.244187        -6.6447
  28   2.0000      -0.242384        -6.5956
  29   0.0000       0.011489         0.3126
  30   0.0000       0.031334         0.8526
  31   0.0000       0.058553         1.5933
  32   0.0000       0.063634         1.7316
  33   0.0000       0.074987         2.0405

MULLIKEN ATOMIC CHARGES
-----------------------
   0 C :   -0.291590
   1 C :   -0.196965
   2 C :   -0.160522
   3 C :   -0.163772
   4 C :   -0.180021
   5 Cl:   -0.156363
   6 H :    0.099682
   7 H :    0.103523
   8 H :    0.105326
   9 H :    0.095035
  10 H :    0.089462
  11 H :    0.084660
  12 H :    0.095951
  13 H :    0.099108
  14 H :    0.098982
  15 H :    0.136701
  16 H :    0.140802
Sum of atomic charges:   -0.0000000

LOEWDIN ATOMIC CHARGES
----------------------
   0 C :   -0.344003
   1 C :   -0.237383
   2 C :   -0.234125
   3 C :   -0.250474
   4 C :   -0.269575
   5 Cl:    0.020109
   6 H :    0.117763
   7 H :    0.113735
   8 H :    0.121149
   9 H :    0.114213
  10 H :    0.119516
  11 H :    0.116832
  12 H :    0.116110
  13 H :    0.124322
  14 H :    0.123873
  15 H :    0.125553
  16 H :    0.122385

  Mayer bond orders larger than 0.100000
B(  0-C ,  1-C ) :   1.1473 B(  0-C ,  6-H ) :   0.9551 B(  0-C ,  7-H ) :   0.9493
B(  0-C ,  8-H ) :   0.9514 B(  1-C ,  2-C ) :   1.1237 B(  1-C ,  9-H ) :   0.9239
B(  1-C , 10-H ) :   0.9247 B(  2-C ,  3-C ) :   1.1206 B(  2-C , 11-H ) :   0.9217
B(  2-C , 12-H ) :   0.9140 B(  3-C ,  4-C ) :   1.1050 B(  3-C , 13-H ) :   0.9022
B(  3-C , 14-H ) :   0.9164 B(  4-C ,  5-Cl) :   1.0273 B(  4-C , 15-H ) :   0.9309
B(  4-C , 16-H ) :   0.9201

Dispersion correction           -0.013698480
FINAL SINGLE POINT ENERGY      -656.512480853664

DIPOLE MOMENT
-------------

Method             : SCF
Type of density    : Electron Density
Multiplicity       :   1
Irrep              :   0
Energy             :  -656.5698415576648586 Eh
Relativity type    :
Basis              : AO
                                X                 Y                 Z
Electronic contribution:    -15.049489003      -2.844745635       1.639707929
Nuclear contribution   :     15.580636858       3.166517053      -1.962278309
                        -----------------------------------------
Total Dipole Moment    :      0.531147854       0.321771418      -0.322570380
                        -----------------------------------------
Magnitude (a.u.)       :      0.699790353
Magnitude (Debye)      :      1.778725721

Rotational constants in cm-1:             0.194744             0.041878             0.040724
Rotational constants in MHz :          5838.286123          1255.463153          1220.886308

                             ****ORCA TERMINATED NORMALLY****
TOTAL RUN TIME: 0 days 0 hours 0 minutes 7 seconds 322 msec
