                         Program Version 6.0.0  -   RELEASE  -
|  1> ! pbe def2-sv(p) def2/J RI DEFGRID1 loosescf d4 GCP(DFT/SV(P)) printgap
|  2> %output
|  3>     printlevel normal
|  4> end
|  5> * xyz 0 1
|  6> C 2.2389173761 0.6335105383 -1.0672131241
|  7> C 1.3867693905 -0.3567560551 -0.2906264182
|  8> C 2.1978482281 -1.1359174265 0.7318817188
|  9> S 0.0236129967 0.5518295265 0.5705710391
| 10> C -1.4653834379 -0.3504088974 -0.0479798958
| 11> C -2.6049436864 -0.0929811464 0.924244303
| 12> C -1.807613939 0.1012233399 -1.4577582541
| 13> H 1.6292712832 1.1890110597 -1.7758728935
| 14> H 2.70332318 1.3421234979 -0.3852851754
| 15> H 3.0193226321 0.1059236251 -1.6112782901
| 16> H 0.8889785339 -1.04381871 -0.9781521951
| 17> H 1.5591075481 -1.8198091357 1.2862538514
| 18> H 2.6633265214 -0.4522329714 1.4381252959
| 19> H 2.9757981442 -1.7092118796 0.2321872097
| 20> H -1.1955140655 -1.4099401729 -0.0349463541
| 21> H -2.8360668385 0.9692767123 0.9563753289
| 22> H -3.4915208833 -0.6371285761 0.6074050891
| 23> H -2.3308719421 -0.4151840195 1.9257781324
| 24> H -2.6720081205 -0.4489018948 -1.8235729661
| 25> H -0.9757439792 -0.0707756973 -2.1375701357
| 26> H -2.0401516775 1.1637555465 -1.4595476011
| 27> *
| 28>
| 29>                          ****END OF INPUT****

CARTESIAN COORDINATES (ANGSTROEM)
---------------------------------
  C      2.238917    0.633511   -1.067213
  C      1.386769   -0.356756   -0.290626
  C      2.197848   -1.135917    0.731882
  S      0.023613    0.551830    0.570571
  C     -1.465383   -0.350409   -0.047980
  C     -2.604944   -0.092981    0.924244
  C     -1.807614    0.101223   -1.457758
  H      1.629271    1.189011   -1.775873
  H      2.703323    1.342123   -0.385285
  H      3.019323    0.105924   -1.611278
  H      0.888979   -1.043819   -0.978152
  H      1.559108   -1.819809    1.286254
  H      2.663327   -0.452233    1.438125
  H      2.975798   -1.709212    0.232187
  H     -1.195514   -1.409940   -0.034946
  H     -2.836067    0.969277    0.956375
  H     -3.491521   -0.637129    0.607405
  H     -2.330872   -0.415184    1.925778
  H     -2.672008   -0.448902   -1.823573
  H     -0.975744   -0.070776   -2.137570
  H     -2.040152    1.163756   -1.459548

 Total Charge           Charge          ....    0
 Multiplicity           Mult            ....    1
 Number of Electrons    NEL             ....   66
 Basis Dimension        Dim             ....  130

ORBITAL ENERGIES
----------------

  NO   OCC          E(Eh)            E(eV)
   0   2.0000     -88.002027     -2394.6569
   1   2.0000      -9.922588      -270.0073
   2   2.0000      -9.921406      -269.9752
   3   2.0000      -9.879334      -268.8304
   4   2.0000      -9.877714      -268.7863
   5   2.0000      -9.876938      -268.7651
   6   2.0000      -9.876363      -268.7495
   7   2.0000      -7.645978      -208.0576
   8   2.0000      -5.674484      -154.4106
   9   2.0000      -5.670815      -154.3107
  10   2.0000      -5.662256      -154.0778
  11   2.0000      -0.748305       -20.3624
  12   2.0000      -0.713816       -19.4239
  13   2.0000      -0.617790       -16.8109
  14   2.0000      -0.615309       -16.7434
  15   2.0000      -0.613549       -16.6955
  16   2.0000      -0.515389       -14.0244
  17   2.0000      -0.494476       -13.4554
  18   2.0000      -0.427394       -11.6300
  19   2.0000      -0.412879       -11.2350
  20   2.0000      -0.392353       -10.6765
  21   2.0000      -0.374527       -10.1914
  22   2.0000      -0.367172        -9.9913
  23   2.0000      -0.362653        -9.8683
  24   2.0000      -0.344821        -9.3831
  25   2.0000      -0.343576        -9.3492
  26   2.0000      -0.314601        -8.5607
  27   2.0000      -0.308402        -8.3921
  28   2.0000      -0.304427        -8.2839
  29   2.0000      -0.301558        -8.2058
  30   2.0000      -0.280673        -7.6375
  31   2.0000      -0.253263        -6.8916
  32   2.0000      -0.174214        -4.7406
  33   0.0000       0.011241         0.3059
  34   0.0000       0.027691         0.7535
  35   0.0000       0.043110         1.1731
  36   0.0000       0.068147         1.8544
  37   0.0000       0.069335         1.8867

MULLIKEN ATOMIC CHARGES
-----------------------
   0 C :   -0.209677
   1 C :   -0.304531
   2 C :   -0.196642
   3 S :   -0.043582
   4 C :   -0.305769
   5 C :   -0.226176
   6 C :   -0.200982
   7 H :    0.108445
   8 H :    0.105085
   9 H :    0.100365
  10 H :    0.115304
  11 H :    0.103435
  12 H :    0.103768
  13 H :    0.098433
  14 H :    0.115960
  15 H :    0.108424
  16 H :    0.107295
  17 H :    0.112600
  18 H :    0.097153
  19 H :    0.108205
  20 H :    0.102887
Sum of atomic charges:   -0.0000000

LOEWDIN ATOMIC CHARGES
----------------------
   0 C :   -0.345514
   1 C :   -0.246036
   2 C :   -0.345443
   3 S :    0.200184
   4 C :   -0.245189
   5 C :   -0.345799
   6 C :   -0.348151
   7 H :    0.119774
   8 H :    0.120845
   9 H :    0.118977
  10 H :    0.118992
  11 H :    0.118969
  12 H :    0.120423
  13 H :    0.117569
  14 H :    0.116958
  15 H :    0.121973
  16 H :    0.123373
  17 H :    0.122255
  18 H :    0.117672
  19 H :    0.117182
  20 H :    0.120986

  Mayer bond orders larger than 0.100000
B(  0-C ,  1-C ) :   1.0895 B(  0-C ,  7-H ) :   0.9485 B(  0-C ,  8-H ) :   0.9494
B(  0-C ,  9-H ) :   0.9428 B(  1-C ,  2-C ) :   1.0866 B(  1-C ,  3-S ) :   1.0004
B(  1-C , 10-H ) :   0.8937 B(  2-C , 11-H ) :   0.9487 B(  2-C , 12-H ) :   0.9497
B(  2-C , 13-H ) :   0.9404 B(  3-S ,  4-C ) :   1.0246 B(  4-C ,  5-C ) :   1.1010
B(  4-C ,  6-C ) :   1.0733 B(  4-C , 14-H ) :   0.9011 B(  5-C , 15-H ) :   0.9473
B(  5-C , 16-H ) :   0.9466 B(  5-C , 17-H ) :   0.9473 B(  6-C , 18-H ) :   0.9365
B(  6-C , 19-H ) :   0.9458 B(  6-C , 20-H ) :   0.9471

Dispersion correction           -0.018426155
FINAL SINGLE POINT ENERGY      -634.346865241237

DIPOLE MOMENT
-------------

Method             : SCF
Type of density    : Electron Density
Multiplicity       :   1
Irrep              :   0
Energy             :  -634.4137461934897146 Eh
Relativity type    :
Basis              : AO
                                X                 Y                 Z
Electronic contribution:      0.036186509       2.576120125       3.168654482
Nuclear contribution   :     -0.097079751      -3.052734259      -3.544113738
                        -----------------------------------------
Total Dipole Moment    :     -0.060893242      -0.476614134      -0.375459256
                        -----------------------------------------
Magnitude (a.u.)       :      0.609785759
Magnitude (Debye)      :      1.549952223

Rotational constants in cm-1:             0.119322             0.041051             0.036233
Rotational constants in MHz :          3577.195305          1230.685051          1086.223073

                             ****ORCA TERMINATED NORMALLY****
TOTAL RUN TIME: 0 days 0 hours 0 minutes 9 seconds 343 msec
