                         Program Version 6.0.1  -  RELEASE   -
|  1> ! r2scan-3c def2/J RI DEFGRID2 scfconv6 printgap
|  2> %output
|  3>     printlevel normal
|  4> end
|  5> * xyz 0 1
|  6> C -3.717279603 0.2603013043 -1.8333509338
|  7> C -3.2512688956 -0.5400908004 -0.6148532083
|  8> H -3.5283095914 -1.5916583523 -0.7536705809
|  9> C -1.754743775 -0.4574398244 -0.4492002395
| 10> C -0.9323706737 -1.5362722574 -0.7451778329
| 11> C 0.4396605963 -1.4381288067 -0.6156803604
| 12> C 1.0489503526 -0.2602551894 -0.1867805898
| 13> C 0.2009477453 0.8023363205 0.1079568017
| 14> C -1.1701370734 0.725344577 -0.0160214206
| 15> F 0.7236364813 1.9789648219 0.5673065447
| 16> C 2.5115360113 -0.1666462773 -0.0557339893
| 17> C 3.2051852469 0.9434388469 -0.5302140682
| 18> C 4.581523028 1.0109767892 -0.4125883351
| 19> C 5.2825519359 -0.0250421924 0.1813305929
| 20> C 4.600156706 -1.1329491349 0.6568395212
| 21> C 3.2249641393 -1.2060978548 0.5373114337
| 22> C -3.937988799 -0.1100652802 0.66887232
| 23> O -3.5208642646 -0.377976286 1.7766730831
| 24> O -5.0557610223 0.5625238584 0.4743477856
| 25> H -3.2097877365 -0.1073283979 -2.7205942706
| 26> H -4.7896931083 0.1565645001 -1.9666916891
| 27> H -3.4822903814 1.3137735259 -1.7094815401
| 28> H -1.3679865953 -2.4640722327 -1.0819084918
| 29> H 1.0641183888 -2.2820360404 -0.8635144096
| 30> H -1.7669207702 1.5867619262 0.2408409779
| 31> H 2.6665503181 1.7513090405 -1.0027867012
| 32> H 5.1074703265 1.8762837871 -0.7869791648
| 33> H 6.3563831354 0.0314874996 0.2744239178
| 34> H 5.1414300951 -1.9417092451 1.1240928794
| 35> H 2.6929946687 -2.0626096954 0.9233995028
| 36> H -5.5000601222 0.8080408561 1.3092411829
| 37> *
| 38>
| 39>                          ****END OF INPUT****

CARTESIAN COORDINATES (ANGSTROEM)
---------------------------------
  C     -3.717280    0.260301   -1.833351
  C     -3.251269   -0.540091   -0.614853
  H     -3.528310   -1.591658   -0.753671
  C     -1.754744   -0.457440   -0.449200
  C     -0.932371   -1.536272   -0.745178
  C      0.439661   -1.438129   -0.615680
  C      1.048950   -0.260255   -0.186781
  C      0.200948    0.802336    0.107957
  C     -1.170137    0.725345   -0.016021
  F      0.723636    1.978965    0.567307
  C      2.511536   -0.166646   -0.055734
  C      3.205185    0.943439   -0.530214
  C      4.581523    1.010977   -0.412588
  C      5.282552   -0.025042    0.181331
  C      4.600157   -1.132949    0.656840
  C      3.224964   -1.206098    0.537311
  C     -3.937989   -0.110065    0.668872
  O     -3.520864   -0.377976    1.776673
  O     -5.055761    0.562524    0.474348
  H     -3.209788   -0.107328   -2.720594
  H     -4.789693    0.156565   -1.966692
  H     -3.482290    1.313774   -1.709482
  H     -1.367987   -2.464072   -1.081908
  H      1.064118   -2.282036   -0.863514
  H     -1.766921    1.586762    0.240841
  H      2.666550    1.751309   -1.002787
  H      5.107470    1.876284   -0.786979
  H      6.356383    0.031487    0.274424
  H      5.141430   -1.941709    1.124093
  H      2.692995   -2.062610    0.923400
  H     -5.500060    0.808041    1.309241

 Total Charge           Charge          ....    0
 Multiplicity           Mult            ....    1
 Number of Electrons    NEL             ....  128
 Basis Dimension        Dim             ....  422

ORBITAL ENERGIES
----------------

  NO   OCC          E(Eh)            E(eV)
   0   2.0000     -24.494353      -666.5252
   1   2.0000     -19.014317      -517.4059
   2   2.0000     -18.937978      -515.3286
   3   2.0000     -10.168158      -276.6896
   4   2.0000     -10.122369      -275.4437
   5   2.0000     -10.069705      -274.0106
   6   2.0000     -10.058663      -273.7101
   7   2.0000     -10.054894      -273.6076
   8   2.0000     -10.050435      -273.4863
   9   2.0000     -10.045974      -273.3648
  10   2.0000     -10.044388      -273.3217
  11   2.0000     -10.040642      -273.2198
  12   2.0000     -10.037274      -273.1281
  13   2.0000     -10.036560      -273.1087
  14   2.0000     -10.036058      -273.0950
  15   2.0000     -10.035686      -273.0849
  16   2.0000     -10.035399      -273.0771
  17   2.0000     -10.035181      -273.0712
  18   2.0000      -1.177500       -32.0414
  19   2.0000      -1.088199       -29.6114
  20   2.0000      -0.984788       -26.7974
  21   2.0000      -0.851663       -23.1749
  22   2.0000      -0.829483       -22.5714
  23   2.0000      -0.789749       -21.4902
  24   2.0000      -0.744036       -20.2463
  25   2.0000      -0.725551       -19.7433
  26   2.0000      -0.718209       -19.5435
  27   2.0000      -0.693986       -18.8843
  28   2.0000      -0.646463       -17.5912
  29   2.0000      -0.619238       -16.8503
  30   2.0000      -0.597843       -16.2681
  31   2.0000      -0.577796       -15.7226
  32   2.0000      -0.570766       -15.5313
  33   2.0000      -0.556395       -15.1403
  34   2.0000      -0.510838       -13.9006
  35   2.0000      -0.491725       -13.3805
  36   2.0000      -0.480671       -13.0797
  37   2.0000      -0.460444       -12.5293
  38   2.0000      -0.453632       -12.3440
  39   2.0000      -0.449089       -12.2203
  40   2.0000      -0.439214       -11.9516
  41   2.0000      -0.429327       -11.6826
  42   2.0000      -0.420663       -11.4468
  43   2.0000      -0.414321       -11.2742
  44   2.0000      -0.410410       -11.1678
  45   2.0000      -0.400967       -10.9109
  46   2.0000      -0.391298       -10.6478
  47   2.0000      -0.387047       -10.5321
  48   2.0000      -0.374775       -10.1981
  49   2.0000      -0.365676        -9.9505
  50   2.0000      -0.360378        -9.8064
  51   2.0000      -0.354455        -9.6452
  52   2.0000      -0.344456        -9.3731
  53   2.0000      -0.334257        -9.0956
  54   2.0000      -0.333531        -9.0758
  55   2.0000      -0.325171        -8.8484
  56   2.0000      -0.313105        -8.5200
  57   2.0000      -0.306217        -8.3326
  58   2.0000      -0.296820        -8.0769
  59   2.0000      -0.258611        -7.0372
  60   2.0000      -0.244310        -6.6480
  61   2.0000      -0.239148        -6.5075
  62   2.0000      -0.236939        -6.4474
  63   2.0000      -0.214833        -5.8459
  64   0.0000      -0.059574        -1.6211
  65   0.0000      -0.036296        -0.9877
  66   0.0000      -0.032906        -0.8954
  67   0.0000      -0.031046        -0.8448
  68   0.0000      -0.009764        -0.2657

MULLIKEN ATOMIC CHARGES
-----------------------
   0 C :   -0.492323
   1 C :   -0.123763
   2 H :    0.168521
   3 C :    0.277896
   4 C :   -0.245470
   5 C :   -0.196586
   6 C :    0.054604
   7 C :    0.304805
   8 C :   -0.349684
   9 F :   -0.242754
  10 C :    0.103470
  11 C :   -0.181496
  12 C :   -0.173160
  13 C :   -0.136870
  14 C :   -0.169212
  15 C :   -0.207200
  16 C :    0.273103
  17 O :   -0.376034
  18 O :   -0.315635
  19 H :    0.154477
  20 H :    0.164012
  21 H :    0.169375
  22 H :    0.143056
  23 H :    0.154214
  24 H :    0.161757
  25 H :    0.154950
  26 H :    0.145520
  27 H :    0.146615
  28 H :    0.145564
  29 H :    0.152899
  30 H :    0.335352
Sum of atomic charges:   -0.0000000

LOEWDIN ATOMIC CHARGES
----------------------
   0 C :   -0.370231
   1 C :   -0.144033
   2 H :    0.193247
   3 C :   -0.053840
   4 C :   -0.158366
   5 C :   -0.128557
   6 C :   -0.062740
   7 C :    0.240732
   8 C :   -0.124582
   9 F :   -0.288671
  10 C :   -0.062185
  11 C :   -0.133033
  12 C :   -0.159521
  13 C :   -0.164080
  14 C :   -0.160552
  15 C :   -0.145642
  16 C :    0.350432
  17 O :   -0.412019
  18 O :   -0.400117
  19 H :    0.159307
  20 H :    0.166495
  21 H :    0.163878
  22 H :    0.171048
  23 H :    0.177262
  24 H :    0.188171
  25 H :    0.177515
  26 H :    0.168079
  27 H :    0.167053
  28 H :    0.167827
  29 H :    0.174253
  30 H :    0.302869

  Mayer bond orders larger than 0.100000
B(  0-C ,  1-C ) :   0.9511 B(  0-C , 19-H ) :   0.9647 B(  0-C , 20-H ) :   0.9700
B(  0-C , 21-H ) :   0.9712 B(  1-C ,  2-H ) :   0.9529 B(  1-C ,  3-C ) :   0.7747
B(  1-C , 16-C ) :   1.0000 B(  3-C ,  4-C ) :   1.3592 B(  3-C ,  6-C ) :   0.1095
B(  3-C ,  8-C ) :   1.3727 B(  4-C ,  5-C ) :   1.4233 B(  4-C , 22-H ) :   0.9500
B(  5-C ,  6-C ) :   1.3721 B(  5-C , 23-H ) :   0.9337 B(  6-C ,  7-C ) :   1.4525
B(  6-C , 10-C ) :   0.7829 B(  7-C ,  8-C ) :   1.4490 B(  7-C ,  9-F ) :   0.8950
B(  8-C , 24-H ) :   0.9050 B( 10-C , 11-C ) :   1.4192 B( 10-C , 15-C ) :   1.3958
B( 11-C , 12-C ) :   1.4365 B( 11-C , 25-H ) :   0.9368 B( 12-C , 13-C ) :   1.4128
B( 12-C , 26-H ) :   0.9505 B( 13-C , 14-C ) :   1.4168 B( 13-C , 27-H ) :   0.9462
B( 14-C , 15-C ) :   1.4372 B( 14-C , 28-H ) :   0.9493 B( 15-C , 29-H ) :   0.9410
B( 16-C , 17-O ) :   1.9629 B( 16-C , 18-O ) :   1.0413 B( 18-O , 30-H ) :   0.8557

Dispersion correction           -0.013413430
FINAL SINGLE POINT ENERGY      -829.574064833263

DIPOLE MOMENT
-------------

Method             : SCF
Type of density    : Electron Density
Multiplicity       :   1
Irrep              :   0
Energy             :  -829.5711915151605353 Eh
Relativity type    :
Basis              : AO
                                X                 Y                 Z
Electronic contribution:      0.756964750       4.373324687       6.316631203
Nuclear contribution   :     -1.375470143      -4.575141784      -7.072273811
                        -----------------------------------------
Total Dipole Moment    :     -0.618505393      -0.201817097      -0.755642608
                        -----------------------------------------
Magnitude (a.u.)       :      0.997133297
Magnitude (Debye)      :      2.534511421

Rotational constants in cm-1:             0.041293             0.006231             0.006036
Rotational constants in MHz :          1237.944151           186.809926           180.955049

                             ****ORCA TERMINATED NORMALLY****
TOTAL RUN TIME: 0 days 0 hours 1 minutes 12 seconds 320 msec
