                         Program Version 6.0.1  -  RELEASE   -
|  1> ! r2scan-3c def2/J RI DEFGRID2 scfconv6 printgap
|  2> %output
|  3>     printlevel normal
|  4> end
|  5> %cpcm
|  6>     smd true
|  7>     smdsolvent "water"
|  8> end
|  9> * xyz 0 1
| 10> C -3.717279603 0.2603013043 -1.8333509338
| 11> C -3.2512688956 -0.5400908004 -0.6148532083
| 12> H -3.5283095914 -1.5916583523 -0.7536705809
| 13> C -1.754743775 -0.4574398244 -0.4492002395
| 14> C -0.9323706737 -1.5362722574 -0.7451778329
| 15> C 0.4396605963 -1.4381288067 -0.6156803604
| 16> C 1.0489503526 -0.2602551894 -0.1867805898
| 17> C 0.2009477453 0.8023363205 0.1079568017
| 18> C -1.1701370734 0.725344577 -0.0160214206
| 19> F 0.7236364813 1.9789648219 0.5673065447
| 20> C 2.5115360113 -0.1666462773 -0.0557339893
| 21> C 3.2051852469 0.9434388469 -0.5302140682
| 22> C 4.581523028 1.0109767892 -0.4125883351
| 23> C 5.2825519359 -0.0250421924 0.1813305929
| 24> C 4.600156706 -1.1329491349 0.6568395212
| 25> C 3.2249641393 -1.2060978548 0.5373114337
| 26> C -3.937988799 -0.1100652802 0.66887232
| 27> O -3.5208642646 -0.377976286 1.7766730831
| 28> O -5.0557610223 0.5625238584 0.4743477856
| 29> H -3.2097877365 -0.1073283979 -2.7205942706
| 30> H -4.7896931083 0.1565645001 -1.9666916891
| 31> H -3.4822903814 1.3137735259 -1.7094815401
| 32> H -1.3679865953 -2.4640722327 -1.0819084918
| 33> H 1.0641183888 -2.2820360404 -0.8635144096
| 34> H -1.7669207702 1.5867619262 0.2408409779
| 35> H 2.6665503181 1.7513090405 -1.0027867012
| 36> H 5.1074703265 1.8762837871 -0.7869791648
| 37> H 6.3563831354 0.0314874996 0.2744239178
| 38> H 5.1414300951 -1.9417092451 1.1240928794
| 39> H 2.6929946687 -2.0626096954 0.9233995028
| 40> H -5.5000601222 0.8080408561 1.3092411829
| 41> *
| 42>
| 43>                          ****END OF INPUT****

CARTESIAN COORDINATES (ANGSTROEM)
---------------------------------
  C     -3.717280    0.260301   -1.833351
  C     -3.251269   -0.540091   -0.614853
  H     -3.528310   -1.591658   -0.753671
  C     -1.754744   -0.457440   -0.449200
  C     -0.932371   -1.536272   -0.745178
  C      0.439661   -1.438129   -0.615680
  C      1.048950   -0.260255   -0.186781
  C      0.200948    0.802336    0.107957
  C     -1.170137    0.725345   -0.016021
  F      0.723636    1.978965    0.567307
  C      2.511536   -0.166646   -0.055734
  C      3.205185    0.943439   -0.530214
  C      4.581523    1.010977   -0.412588
  C      5.282552   -0.025042    0.181331
  C      4.600157   -1.132949    0.656840
  C      3.224964   -1.206098    0.537311
  C     -3.937989   -0.110065    0.668872
  O     -3.520864   -0.377976    1.776673
  O     -5.055761    0.562524    0.474348
  H     -3.209788   -0.107328   -2.720594
  H     -4.789693    0.156565   -1.966692
  H     -3.482290    1.313774   -1.709482
  H     -1.367987   -2.464072   -1.081908
  H      1.064118   -2.282036   -0.863514
  H     -1.766921    1.586762    0.240841
  H      2.666550    1.751309   -1.002787
  H      5.107470    1.876284   -0.786979
  H      6.356383    0.031487    0.274424
  H      5.141430   -1.941709    1.124093
  H      2.692995   -2.062610    0.923400
  H     -5.500060    0.808041    1.309241

 Total Charge           Charge          ....    0
 Multiplicity           Mult            ....    1
 Number of Electrons    NEL             ....  128
 Basis Dimension        Dim             ....  422

ORBITAL ENERGIES
----------------

  NO   OCC          E(Eh)            E(eV)
   0   2.0000     -24.501577      -666.7218
   1   2.0000     -19.004935      -517.1506
   2   2.0000     -18.945975      -515.5462
   3   2.0000     -10.171881      -276.7910
   4   2.0000     -10.124205      -275.4936
   5   2.0000     -10.059392      -273.7300
   6   2.0000     -10.056354      -273.6473
   7   2.0000     -10.055753      -273.6309
   8   2.0000     -10.052101      -273.5316
   9   2.0000     -10.043164      -273.2884
  10   2.0000     -10.042181      -273.2616
  11   2.0000     -10.036426      -273.1050
  12   2.0000     -10.036424      -273.1050
  13   2.0000     -10.036140      -273.0972
  14   2.0000     -10.035213      -273.0720
  15   2.0000     -10.034985      -273.0658
  16   2.0000     -10.034191      -273.0442
  17   2.0000     -10.021417      -272.6966
  18   2.0000      -1.185439       -32.2574
  19   2.0000      -1.083360       -29.4797
  20   2.0000      -0.989449       -26.9243
  21   2.0000      -0.851780       -23.1781
  22   2.0000      -0.829866       -22.5818
  23   2.0000      -0.784892       -21.3580
  24   2.0000      -0.741460       -20.1761
  25   2.0000      -0.724576       -19.7167
  26   2.0000      -0.718135       -19.5414
  27   2.0000      -0.692043       -18.8314
  28   2.0000      -0.635764       -17.3000
  29   2.0000      -0.613984       -16.7073
  30   2.0000      -0.596776       -16.2391
  31   2.0000      -0.574443       -15.6314
  32   2.0000      -0.567624       -15.4458
  33   2.0000      -0.554573       -15.0907
  34   2.0000      -0.509804       -13.8725
  35   2.0000      -0.489744       -13.3266
  36   2.0000      -0.477626       -12.9969
  37   2.0000      -0.461892       -12.5687
  38   2.0000      -0.456952       -12.4343
  39   2.0000      -0.448111       -12.1937
  40   2.0000      -0.436150       -11.8682
  41   2.0000      -0.434036       -11.8107
  42   2.0000      -0.419358       -11.4113
  43   2.0000      -0.412743       -11.2313
  44   2.0000      -0.405207       -11.0262
  45   2.0000      -0.394821       -10.7436
  46   2.0000      -0.388540       -10.5727
  47   2.0000      -0.382321       -10.4035
  48   2.0000      -0.367523       -10.0008
  49   2.0000      -0.366126        -9.9628
  50   2.0000      -0.358825        -9.7641
  51   2.0000      -0.354672        -9.6511
  52   2.0000      -0.340322        -9.2606
  53   2.0000      -0.334101        -9.0914
  54   2.0000      -0.323761        -8.8100
  55   2.0000      -0.321854        -8.7581
  56   2.0000      -0.309995        -8.4354
  57   2.0000      -0.304458        -8.2847
  58   2.0000      -0.299660        -8.1542
  59   2.0000      -0.260641        -7.0924
  60   2.0000      -0.253549        -6.8994
  61   2.0000      -0.242427        -6.5968
  62   2.0000      -0.238732        -6.4962
  63   2.0000      -0.217192        -5.9101
  64   0.0000      -0.060954        -1.6586
  65   0.0000      -0.036587        -0.9956
  66   0.0000      -0.035224        -0.9585
  67   0.0000      -0.030447        -0.8285
  68   0.0000      -0.010694        -0.2910

MULLIKEN ATOMIC CHARGES
-----------------------
   0 C :   -0.548689
   1 C :   -0.056064
   2 H :    0.211001
   3 C :    0.168279
   4 C :   -0.264530
   5 C :   -0.205978
   6 C :    0.067048
   7 C :    0.316785
   8 C :   -0.371701
   9 F :   -0.251797
  10 C :    0.062278
  11 C :   -0.213403
  12 C :   -0.211644
  13 C :   -0.163900
  14 C :   -0.211807
  15 C :   -0.212398
  16 C :    0.307520
  17 O :   -0.472186
  18 O :   -0.335685
  19 H :    0.169793
  20 H :    0.174420
  21 H :    0.187140
  22 H :    0.180997
  23 H :    0.186328
  24 H :    0.199011
  25 H :    0.183331
  26 H :    0.178553
  27 H :    0.180375
  28 H :    0.178760
  29 H :    0.184480
  30 H :    0.383681
Sum of atomic charges:   -0.0000000

LOEWDIN ATOMIC CHARGES
----------------------
   0 C :   -0.373147
   1 C :   -0.138865
   2 H :    0.209041
   3 C :   -0.062951
   4 C :   -0.159491
   5 C :   -0.130836
   6 C :   -0.070922
   7 C :    0.230278
   8 C :   -0.132012
   9 F :   -0.300803
  10 C :   -0.074632
  11 C :   -0.147021
  12 C :   -0.168469
  13 C :   -0.172296
  14 C :   -0.168025
  15 C :   -0.150020
  16 C :    0.365509
  17 O :   -0.481398
  18 O :   -0.383208
  19 H :    0.164338
  20 H :    0.169961
  21 H :    0.168074
  22 H :    0.185484
  23 H :    0.189057
  24 H :    0.201349
  25 H :    0.185427
  26 H :    0.179287
  27 H :    0.178251
  28 H :    0.179322
  29 H :    0.185202
  30 H :    0.323515

  Mayer bond orders larger than 0.100000
B(  0-C ,  1-C ) :   0.9060 B(  0-C , 19-H ) :   0.9615 B(  0-C , 20-H ) :   0.9681
B(  0-C , 21-H ) :   0.9723 B(  1-C ,  2-H ) :   0.9438 B(  1-C ,  3-C ) :   0.7776
B(  1-C , 16-C ) :   1.0023 B(  3-C ,  4-C ) :   1.3480 B(  3-C ,  6-C ) :   0.1019
B(  3-C ,  8-C ) :   1.3748 B(  4-C ,  5-C ) :   1.4094 B(  4-C , 22-H ) :   0.9616
B(  5-C ,  6-C ) :   1.3476 B(  5-C , 23-H ) :   0.9403 B(  6-C ,  7-C ) :   1.4193
B(  6-C , 10-C ) :   0.7650 B(  7-C ,  8-C ) :   1.3880 B(  7-C ,  9-F ) :   0.8947
B(  8-C , 24-H ) :   0.9217 B( 10-C , 11-C ) :   1.3792 B( 10-C , 15-C ) :   1.3711
B( 11-C , 12-C ) :   1.4112 B( 11-C , 25-H ) :   0.9465 B( 12-C , 13-C ) :   1.3792
B( 12-C , 26-H ) :   0.9595 B( 13-C , 14-C ) :   1.3805 B( 13-C , 27-H ) :   0.9523
B( 14-C , 15-C ) :   1.4156 B( 14-C , 28-H ) :   0.9588 B( 15-C , 29-H ) :   0.9457
B( 16-C , 17-O ) :   1.8892 B( 16-C , 18-O ) :   1.0919 B( 18-O , 30-H ) :   0.8313

Dispersion correction           -0.013413430
FINAL SINGLE POINT ENERGY      -829.590058871293

DIPOLE MOMENT
-------------

Method             : SCF
Type of density    : Electron Density
Multiplicity       :   1
Irrep              :   0
Energy             :  -829.5871855531902384 Eh
Relativity type    :
Basis              : AO
                                X                 Y                 Z
Electronic contribution:      0.440891366       4.233676459       5.908849908
Nuclear contribution   :     -1.375470143      -4.575141784      -7.072273811
                        -----------------------------------------
Total Dipole Moment    :     -0.934578777      -0.341465325      -1.163423903
                        -----------------------------------------
Magnitude (a.u.)       :      1.530879237
Magnitude (Debye)      :      3.891185783

Rotational constants in cm-1:             0.041293             0.006231             0.006036
Rotational constants in MHz :          1237.944151           186.809926           180.955049

                             ****ORCA TERMINATED NORMALLY****
TOTAL RUN TIME: 0 days 0 hours 1 minutes 33 seconds 497 msec
