                         Program Version 6.0.0  -   RELEASE  -
|  1> ! r2scan-3c def2/J RI DEFGRID2 scfconv6 printgap
|  2> %output
|  3>     printlevel normal
|  4> end
|  5> * xyz 0 1
|  6> C -2.781662912 -1.1497239983 -0.0884446474
|  7> C -2.5235748313 0.3515580751 -0.0416267446
|  8> C -1.2240428486 0.6772944893 0.6957948988
|  9> C -0.011679123 0.2347274288 -0.0833305489
| 10> O 0.1044482144 0.2961215504 -1.2890825067
| 11> O 0.9355399794 -0.2318150255 0.7234952798
| 12> C 2.1861024535 -0.6444206938 0.1470211192
| 13> C 3.1372424289 0.5331165793 -0.0016104284
| 14> H -3.7148309354 -1.3579819154 -0.6048905125
| 15> H -1.9769543483 -1.6547095114 -0.6194872901
| 16> H -2.8428695492 -1.5595044006 0.9169794489
| 17> H -3.3517846007 0.8498920985 0.4626103104
| 18> H -2.4539022347 0.7410850331 -1.0589155264
| 19> H -1.1936206437 0.208512968 1.6789843192
| 20> H -1.1353488543 1.7584514796 0.8244654259
| 21> H 2.577911509 -1.3859876846 0.8436553567
| 22> H 1.9869249289 -1.1038811224 -0.8259523591
| 23> H 2.7313677476 1.2529485055 -0.7089331069
| 24> H 3.2803061398 1.0215445289 0.9584089245
| 25> H 4.0941746312 0.1784181446 -0.3702421317
| 26> *
| 27>
| 28>                          ****END OF INPUT****

CARTESIAN COORDINATES (ANGSTROEM)
---------------------------------
  C     -2.781663   -1.149724   -0.088445
  C     -2.523575    0.351558   -0.041627
  C     -1.224043    0.677294    0.695795
  C     -0.011679    0.234727   -0.083331
  O      0.104448    0.296122   -1.289083
  O      0.935540   -0.231815    0.723495
  C      2.186102   -0.644421    0.147021
  C      3.137242    0.533117   -0.001610
  H     -3.714831   -1.357982   -0.604891
  H     -1.976954   -1.654710   -0.619487
  H     -2.842870   -1.559504    0.916979
  H     -3.351785    0.849892    0.462610
  H     -2.453902    0.741085   -1.058916
  H     -1.193621    0.208513    1.678984
  H     -1.135349    1.758451    0.824465
  H      2.577912   -1.385988    0.843655
  H      1.986925   -1.103881   -0.825952
  H      2.731368    1.252949   -0.708933
  H      3.280306    1.021545    0.958409
  H      4.094175    0.178418   -0.370242

 Total Charge           Charge          ....    0
 Multiplicity           Mult            ....    1
 Number of Electrons    NEL             ....   64
 Basis Dimension        Dim             ....  222

ORBITAL ENERGIES
----------------

  NO   OCC          E(Eh)            E(eV)
   0   2.0000     -18.996123      -516.9108
   1   2.0000     -18.928450      -515.0693
   2   2.0000     -10.151935      -276.2482
   3   2.0000     -10.090609      -274.5794
   4   2.0000     -10.040776      -273.2234
   5   2.0000     -10.030754      -272.9507
   6   2.0000     -10.028636      -272.8931
   7   2.0000     -10.016818      -272.5715
   8   2.0000      -1.070738       -29.1363
   9   2.0000      -0.975987       -26.5579
  10   2.0000      -0.771447       -20.9922
  11   2.0000      -0.739071       -20.1111
  12   2.0000      -0.677522       -18.4363
  13   2.0000      -0.623736       -16.9727
  14   2.0000      -0.564232       -15.3535
  15   2.0000      -0.518004       -14.0956
  16   2.0000      -0.473906       -12.8956
  17   2.0000      -0.455855       -12.4045
  18   2.0000      -0.441235       -12.0066
  19   2.0000      -0.418952       -11.4003
  20   2.0000      -0.409942       -11.1551
  21   2.0000      -0.388950       -10.5839
  22   2.0000      -0.378015       -10.2863
  23   2.0000      -0.364336        -9.9141
  24   2.0000      -0.349959        -9.5229
  25   2.0000      -0.343133        -9.3371
  26   2.0000      -0.315306        -8.5799
  27   2.0000      -0.309333        -8.4174
  28   2.0000      -0.306909        -8.3514
  29   2.0000      -0.303011        -8.2454
  30   2.0000      -0.271471        -7.3871
  31   2.0000      -0.237030        -6.4499
  32   0.0000      -0.014641        -0.3984
  33   0.0000       0.075199         2.0463
  34   0.0000       0.092140         2.5073
  35   0.0000       0.108664         2.9569
  36   0.0000       0.120255         3.2723

MULLIKEN ATOMIC CHARGES
-----------------------
   0 C :   -0.498552
   1 C :   -0.203376
   2 C :   -0.299735
   3 C :    0.346960
   4 O :   -0.432539
   5 O :   -0.174101
   6 C :   -0.137434
   7 C :   -0.470313
   8 H :    0.147707
   9 H :    0.159480
  10 H :    0.142753
  11 H :    0.141561
  12 H :    0.158382
  13 H :    0.166203
  14 H :    0.167048
  15 H :    0.147709
  16 H :    0.167800
  17 H :    0.171782
  18 H :    0.151805
  19 H :    0.146860
Sum of atomic charges:   -0.0000000

LOEWDIN ATOMIC CHARGES
----------------------
   0 C :   -0.417068
   1 C :   -0.297144
   2 C :   -0.232376
   3 C :    0.358065
   4 O :   -0.441117
   5 O :   -0.595886
   6 C :    0.026475
   7 C :   -0.390451
   8 H :    0.152773
   9 H :    0.157299
  10 H :    0.149075
  11 H :    0.152379
  12 H :    0.169389
  13 H :    0.178677
  14 H :    0.183054
  15 H :    0.177672
  16 H :    0.188105
  17 H :    0.164887
  18 H :    0.157099
  19 H :    0.159095

  Mayer bond orders larger than 0.100000
B(  0-C ,  1-C ) :   0.9090 B(  0-C ,  8-H ) :   0.9693 B(  0-C ,  9-H ) :   0.9751
B(  0-C , 10-H ) :   0.9824 B(  1-C ,  2-C ) :   0.8987 B(  1-C , 11-H ) :   0.9643
B(  1-C , 12-H ) :   0.9617 B(  2-C ,  3-C ) :   0.9541 B(  2-C , 13-H ) :   0.9991
B(  2-C , 14-H ) :   0.9224 B(  3-C ,  4-O ) :   1.8368 B(  3-C ,  5-O ) :   1.0569
B(  5-O ,  6-C ) :   0.8181 B(  6-C ,  7-C ) :   0.9378 B(  6-C , 15-H ) :   0.9613
B(  6-C , 16-H ) :   0.9671 B(  7-C , 17-H ) :   0.9717 B(  7-C , 18-H ) :   0.9736
B(  7-C , 19-H ) :   0.9652

Dispersion correction           -0.005094409
FINAL SINGLE POINT ENERGY      -386.237023564151

DIPOLE MOMENT
-------------

Method             : SCF
Type of density    : Electron Density
Multiplicity       :   1
Irrep              :   0
Energy             :  -386.2436845441351352 Eh
Relativity type    :
Basis              : AO
                                X                 Y                 Z
Electronic contribution:      2.089548345       0.915442758      -0.738462950
Nuclear contribution   :     -1.859623435      -0.985258428       1.395751395
                        -----------------------------------------
Total Dipole Moment    :      0.229924911      -0.069815670       0.657288445
                        -----------------------------------------
Magnitude (a.u.)       :      0.699834118
Magnitude (Debye)      :      1.778836961

Rotational constants in cm-1:             0.167586             0.032482             0.032205
Rotational constants in MHz :          5024.110800           973.773820           965.486880

                             ****ORCA TERMINATED NORMALLY****
TOTAL RUN TIME: 0 days 0 hours 0 minutes 32 seconds 446 msec
