                         Program Version 6.0.0  -   RELEASE  -
|  1> ! r2scan-3c def2/J RI DEFGRID2 scfconv6 printgap
|  2> %output
|  3>     printlevel normal
|  4> end
|  5> %cpcm
|  6>     smd true
|  7>     smdsolvent "water"
|  8> end
|  9> * xyz 0 1
| 10> C -2.781662912 -1.1497239983 -0.0884446474
| 11> C -2.5235748313 0.3515580751 -0.0416267446
| 12> C -1.2240428486 0.6772944893 0.6957948988
| 13> C -0.011679123 0.2347274288 -0.0833305489
| 14> O 0.1044482144 0.2961215504 -1.2890825067
| 15> O 0.9355399794 -0.2318150255 0.7234952798
| 16> C 2.1861024535 -0.6444206938 0.1470211192
| 17> C 3.1372424289 0.5331165793 -0.0016104284
| 18> H -3.7148309354 -1.3579819154 -0.6048905125
| 19> H -1.9769543483 -1.6547095114 -0.6194872901
| 20> H -2.8428695492 -1.5595044006 0.9169794489
| 21> H -3.3517846007 0.8498920985 0.4626103104
| 22> H -2.4539022347 0.7410850331 -1.0589155264
| 23> H -1.1936206437 0.208512968 1.6789843192
| 24> H -1.1353488543 1.7584514796 0.8244654259
| 25> H 2.577911509 -1.3859876846 0.8436553567
| 26> H 1.9869249289 -1.1038811224 -0.8259523591
| 27> H 2.7313677476 1.2529485055 -0.7089331069
| 28> H 3.2803061398 1.0215445289 0.9584089245
| 29> H 4.0941746312 0.1784181446 -0.3702421317
| 30> *
| 31>
| 32>                          ****END OF INPUT****

CARTESIAN COORDINATES (ANGSTROEM)
---------------------------------
  C     -2.781663   -1.149724   -0.088445
  C     -2.523575    0.351558   -0.041627
  C     -1.224043    0.677294    0.695795
  C     -0.011679    0.234727   -0.083331
  O      0.104448    0.296122   -1.289083
  O      0.935540   -0.231815    0.723495
  C      2.186102   -0.644421    0.147021
  C      3.137242    0.533117   -0.001610
  H     -3.714831   -1.357982   -0.604891
  H     -1.976954   -1.654710   -0.619487
  H     -2.842870   -1.559504    0.916979
  H     -3.351785    0.849892    0.462610
  H     -2.453902    0.741085   -1.058916
  H     -1.193621    0.208513    1.678984
  H     -1.135349    1.758451    0.824465
  H      2.577912   -1.385988    0.843655
  H      1.986925   -1.103881   -0.825952
  H      2.731368    1.252949   -0.708933
  H      3.280306    1.021545    0.958409
  H      4.094175    0.178418   -0.370242

 Total Charge           Charge          ....    0
 Multiplicity           Mult            ....    1
 Number of Electrons    NEL             ....   64
 Basis Dimension        Dim             ....  222

ORBITAL ENERGIES
----------------

  NO   OCC          E(Eh)            E(eV)
   0   2.0000     -19.001950      -517.0693
   1   2.0000     -18.943523      -515.4795
   2   2.0000     -10.162235      -276.5285
   3   2.0000     -10.082888      -274.3693
   4   2.0000     -10.035180      -273.0711
   5   2.0000     -10.025962      -272.8203
   6   2.0000     -10.018222      -272.6097
   7   2.0000     -10.010719      -272.4055
   8   2.0000      -1.078117       -29.3370
   9   2.0000      -0.988993       -26.9119
  10   2.0000      -0.767894       -20.8955
  11   2.0000      -0.732909       -19.9435
  12   2.0000      -0.672738       -18.3061
  13   2.0000      -0.618920       -16.8417
  14   2.0000      -0.558973       -15.2104
  15   2.0000      -0.516944       -14.0668
  16   2.0000      -0.474372       -12.9083
  17   2.0000      -0.460945       -12.5430
  18   2.0000      -0.443357       -12.0644
  19   2.0000      -0.421388       -11.4666
  20   2.0000      -0.405138       -11.0244
  21   2.0000      -0.385115       -10.4795
  22   2.0000      -0.371905       -10.1201
  23   2.0000      -0.359832        -9.7915
  24   2.0000      -0.349226        -9.5029
  25   2.0000      -0.339715        -9.2441
  26   2.0000      -0.309617        -8.4251
  27   2.0000      -0.305294        -8.3075
  28   2.0000      -0.302165        -8.2223
  29   2.0000      -0.301258        -8.1976
  30   2.0000      -0.278397        -7.5756
  31   2.0000      -0.252420        -6.8687
  32   0.0000      -0.022301        -0.6068
  33   0.0000       0.077319         2.1040
  34   0.0000       0.098792         2.6883
  35   0.0000       0.118127         3.2144
  36   0.0000       0.128083         3.4853

MULLIKEN ATOMIC CHARGES
-----------------------
   0 C :   -0.528910
   1 C :   -0.220480
   2 C :   -0.311393
   3 C :    0.386553
   4 O :   -0.513046
   5 O :   -0.197053
   6 C :   -0.143069
   7 C :   -0.495346
   8 H :    0.160365
   9 H :    0.160767
  10 H :    0.159490
  11 H :    0.160954
  12 H :    0.150662
  13 H :    0.181984
  14 H :    0.199349
  15 H :    0.173477
  16 H :    0.171742
  17 H :    0.168331
  18 H :    0.165498
  19 H :    0.170124
Sum of atomic charges:   -0.0000000

LOEWDIN ATOMIC CHARGES
----------------------
   0 C :   -0.424013
   1 C :   -0.297192
   2 C :   -0.229148
   3 C :    0.368262
   4 O :   -0.498464
   5 O :   -0.599916
   6 C :    0.031044
   7 C :   -0.393321
   8 H :    0.155686
   9 H :    0.156051
  10 H :    0.155057
  11 H :    0.159965
  12 H :    0.164401
  13 H :    0.186401
  14 H :    0.194957
  15 H :    0.188903
  16 H :    0.189471
  17 H :    0.162261
  18 H :    0.161919
  19 H :    0.167677

  Mayer bond orders larger than 0.100000
B(  0-C ,  1-C ) :   0.9075 B(  0-C ,  8-H ) :   0.9671 B(  0-C ,  9-H ) :   0.9731
B(  0-C , 10-H ) :   0.9780 B(  1-C ,  2-C ) :   0.8826 B(  1-C , 11-H ) :   0.9601
B(  1-C , 12-H ) :   0.9683 B(  2-C ,  3-C ) :   0.9583 B(  2-C , 13-H ) :   0.9882
B(  2-C , 14-H ) :   0.9140 B(  3-C ,  4-O ) :   1.7725 B(  3-C ,  5-O ) :   1.0780
B(  5-O ,  6-C ) :   0.8004 B(  6-C ,  7-C ) :   0.9367 B(  6-C , 15-H ) :   0.9520
B(  6-C , 16-H ) :   0.9632 B(  7-C , 17-H ) :   0.9693 B(  7-C , 18-H ) :   0.9697
B(  7-C , 19-H ) :   0.9602

Dispersion correction           -0.005094409
FINAL SINGLE POINT ENERGY      -386.241691588933

DIPOLE MOMENT
-------------

Method             : SCF
Type of density    : Electron Density
Multiplicity       :   1
Irrep              :   0
Energy             :  -386.2483525689166299 Eh
Relativity type    :
Basis              : AO
                                X                 Y                 Z
Electronic contribution:      2.147512376       0.881546269      -0.371845784
Nuclear contribution   :     -1.859623435      -0.985258428       1.395751395
                        -----------------------------------------
Total Dipole Moment    :      0.287888942      -0.103712159       1.023905611
                        -----------------------------------------
Magnitude (a.u.)       :      1.068652870
Magnitude (Debye)      :      2.716299726

Rotational constants in cm-1:             0.167586             0.032482             0.032205
Rotational constants in MHz :          5024.110800           973.773820           965.486880

                             ****ORCA TERMINATED NORMALLY****
TOTAL RUN TIME: 0 days 0 hours 0 minutes 39 seconds 714 msec
