                         Program Version 6.0.0  -   RELEASE  -
|  1> ! r2scan-3c def2/J RI DEFGRID2 scfconv6 printgap
|  2> %output
|  3>     printlevel normal
|  4> end
|  5> * xyz 0 1
|  6> C 1.6459891377 -0.7753908059 -0.5134683844
|  7> C 1.367386456 0.552438403 0.1826274077
|  8> C -0.0065792209 0.6285968097 0.8520196721
|  9> C -1.1979128235 0.5411775381 -0.1233931461
| 10> N -1.737810327 -0.7890809013 -0.3611708707
| 11> H 1.4984225975 -1.6067441085 0.1732462553
| 12> H 0.995213496 -0.9075155687 -1.374567272
| 13> H 2.6746609907 -0.8040475035 -0.8657396368
| 14> H 2.1291856136 0.7151187906 0.9492730992
| 15> H 1.4533277384 1.3640519958 -0.5434809824
| 16> H -0.0949737724 -0.1706747642 1.5934535603
| 17> H -0.0663488755 1.5780308186 1.3879337633
| 18> H -0.9098252622 0.9594135783 -1.0914582999
| 19> H -2.0233546869 1.1443575427 0.2650651173
| 20> H -2.0451116576 -1.1915279834 0.5180630337
| 21> H -1.0172011449 -1.3978146382 -0.7329814128
| 22> *
| 23>
| 24>                          ****END OF INPUT****

CARTESIAN COORDINATES (ANGSTROEM)
---------------------------------
  C      1.645989   -0.775391   -0.513468
  C      1.367386    0.552438    0.182627
  C     -0.006579    0.628597    0.852020
  C     -1.197913    0.541178   -0.123393
  N     -1.737810   -0.789081   -0.361171
  H      1.498423   -1.606744    0.173246
  H      0.995213   -0.907516   -1.374567
  H      2.674661   -0.804048   -0.865740
  H      2.129186    0.715119    0.949273
  H      1.453328    1.364052   -0.543481
  H     -0.094974   -0.170675    1.593454
  H     -0.066349    1.578031    1.387934
  H     -0.909825    0.959414   -1.091458
  H     -2.023355    1.144358    0.265065
  H     -2.045112   -1.191528    0.518063
  H     -1.017201   -1.397815   -0.732981

 Total Charge           Charge          ....    0
 Multiplicity           Mult            ....    1
 Number of Electrons    NEL             ....   42
 Basis Dimension        Dim             ....  155

ORBITAL ENERGIES
----------------

  NO   OCC          E(Eh)            E(eV)
   0   2.0000     -14.131479      -384.5371
   1   2.0000     -10.046730      -273.3854
   2   2.0000     -10.026881      -272.8453
   3   2.0000     -10.021260      -272.6923
   4   2.0000     -10.020821      -272.6804
   5   2.0000      -0.844585       -22.9823
   6   2.0000      -0.751931       -20.4611
   7   2.0000      -0.672886       -18.3102
   8   2.0000      -0.595811       -16.2128
   9   2.0000      -0.538846       -14.6628
  10   2.0000      -0.465796       -12.6749
  11   2.0000      -0.429189       -11.6788
  12   2.0000      -0.411887       -11.2080
  13   2.0000      -0.385410       -10.4875
  14   2.0000      -0.372663       -10.1407
  15   2.0000      -0.349149        -9.5008
  16   2.0000      -0.334743        -9.1088
  17   2.0000      -0.313524        -8.5314
  18   2.0000      -0.298829        -8.1315
  19   2.0000      -0.287720        -7.8293
  20   2.0000      -0.199993        -5.4421
  21   0.0000       0.074215         2.0195
  22   0.0000       0.102179         2.7804
  23   0.0000       0.114533         3.1166
  24   0.0000       0.118559         3.2262
  25   0.0000       0.137274         3.7354

MULLIKEN ATOMIC CHARGES
-----------------------
   0 C :   -0.494048
   1 C :   -0.258952
   2 C :   -0.207469
   3 C :   -0.284805
   4 N :   -0.549168
   5 H :    0.151344
   6 H :    0.144245
   7 H :    0.148446
   8 H :    0.141353
   9 H :    0.140476
  10 H :    0.129726
  11 H :    0.140034
  12 H :    0.152915
  13 H :    0.149751
  14 H :    0.241050
  15 H :    0.255103
Sum of atomic charges:    0.0000000

LOEWDIN ATOMIC CHARGES
----------------------
   0 C :   -0.430095
   1 C :   -0.316994
   2 C :   -0.308093
   3 C :   -0.084790
   4 N :   -0.736586
   5 H :    0.150157
   6 H :    0.146757
   7 H :    0.151384
   8 H :    0.151498
   9 H :    0.151765
  10 H :    0.155050
  11 H :    0.155774
  12 H :    0.173172
  13 H :    0.174054
  14 H :    0.233193
  15 H :    0.233755

  Mayer bond orders larger than 0.100000
B(  0-C ,  1-C ) :   0.8847 B(  0-C ,  5-H ) :   0.9828 B(  0-C ,  6-H ) :   0.9762
B(  0-C ,  7-H ) :   0.9675 B(  1-C ,  2-C ) :   0.9181 B(  1-C ,  8-H ) :   0.9725
B(  1-C ,  9-H ) :   0.9830 B(  2-C ,  3-C ) :   0.8352 B(  2-C , 10-H ) :   0.9870
B(  2-C , 11-H ) :   0.9624 B(  3-C ,  4-N ) :   0.9618 B(  3-C , 12-H ) :   1.0024
B(  3-C , 13-H ) :   0.9869 B(  4-N , 14-H ) :   0.9200 B(  4-N , 15-H ) :   0.9148

Dispersion correction           -0.003612249
FINAL SINGLE POINT ENERGY      -213.719737246457

DIPOLE MOMENT
-------------

Method             : SCF
Type of density    : Electron Density
Multiplicity       :   1
Irrep              :   0
Energy             :  -213.7268705383949623 Eh
Relativity type    :
Basis              : AO
                                X                 Y                 Z
Electronic contribution:     -1.979984726       0.286798671       0.101033367
Nuclear contribution   :      2.424092428      -0.302039308       0.259592881
                        -----------------------------------------
Total Dipole Moment    :      0.444107702      -0.015240636       0.360626248
                        -----------------------------------------
Magnitude (a.u.)       :      0.572289454
Magnitude (Debye)      :      1.454644189

Rotational constants in cm-1:             0.251057             0.108802             0.085824
Rotational constants in MHz :          7526.502237          3261.797770          2572.926618

                             ****ORCA TERMINATED NORMALLY****
TOTAL RUN TIME: 0 days 0 hours 0 minutes 15 seconds 317 msec
