                         Program Version 6.0.0  -   RELEASE  -
|  1> ! r2scan-3c def2/J RI DEFGRID2 scfconv6 printgap
|  2> %output
|  3>     printlevel normal
|  4> end
|  5> %cpcm
|  6>     smd true
|  7>     smdsolvent "water"
|  8> end
|  9> * xyz 0 1
| 10> C 1.6459891377 -0.7753908059 -0.5134683844
| 11> C 1.367386456 0.552438403 0.1826274077
| 12> C -0.0065792209 0.6285968097 0.8520196721
| 13> C -1.1979128235 0.5411775381 -0.1233931461
| 14> N -1.737810327 -0.7890809013 -0.3611708707
| 15> H 1.4984225975 -1.6067441085 0.1732462553
| 16> H 0.995213496 -0.9075155687 -1.374567272
| 17> H 2.6746609907 -0.8040475035 -0.8657396368
| 18> H 2.1291856136 0.7151187906 0.9492730992
| 19> H 1.4533277384 1.3640519958 -0.5434809824
| 20> H -0.0949737724 -0.1706747642 1.5934535603
| 21> H -0.0663488755 1.5780308186 1.3879337633
| 22> H -0.9098252622 0.9594135783 -1.0914582999
| 23> H -2.0233546869 1.1443575427 0.2650651173
| 24> H -2.0451116576 -1.1915279834 0.5180630337
| 25> H -1.0172011449 -1.3978146382 -0.7329814128
| 26> *
| 27>
| 28>                          ****END OF INPUT****

CARTESIAN COORDINATES (ANGSTROEM)
---------------------------------
  C      1.645989   -0.775391   -0.513468
  C      1.367386    0.552438    0.182627
  C     -0.006579    0.628597    0.852020
  C     -1.197913    0.541178   -0.123393
  N     -1.737810   -0.789081   -0.361171
  H      1.498423   -1.606744    0.173246
  H      0.995213   -0.907516   -1.374567
  H      2.674661   -0.804048   -0.865740
  H      2.129186    0.715119    0.949273
  H      1.453328    1.364052   -0.543481
  H     -0.094974   -0.170675    1.593454
  H     -0.066349    1.578031    1.387934
  H     -0.909825    0.959414   -1.091458
  H     -2.023355    1.144358    0.265065
  H     -2.045112   -1.191528    0.518063
  H     -1.017201   -1.397815   -0.732981

 Total Charge           Charge          ....    0
 Multiplicity           Mult            ....    1
 Number of Electrons    NEL             ....   42
 Basis Dimension        Dim             ....  155

ORBITAL ENERGIES
----------------

  NO   OCC          E(Eh)            E(eV)
   0   2.0000     -14.126066      -384.3898
   1   2.0000     -10.039888      -273.1992
   2   2.0000     -10.015719      -272.5416
   3   2.0000     -10.011549      -272.4281
   4   2.0000     -10.007622      -272.3212
   5   2.0000      -0.838848       -22.8262
   6   2.0000      -0.741344       -20.1730
   7   2.0000      -0.662924       -18.0391
   8   2.0000      -0.586903       -15.9704
   9   2.0000      -0.528971       -14.3940
  10   2.0000      -0.457926       -12.4608
  11   2.0000      -0.419202       -11.4071
  12   2.0000      -0.402212       -10.9447
  13   2.0000      -0.375672       -10.2226
  14   2.0000      -0.363686        -9.8964
  15   2.0000      -0.339366        -9.2346
  16   2.0000      -0.325429        -8.8554
  17   2.0000      -0.302860        -8.2412
  18   2.0000      -0.287683        -7.8282
  19   2.0000      -0.277972        -7.5640
  20   2.0000      -0.200850        -5.4654
  21   0.0000       0.085176         2.3178
  22   0.0000       0.112851         3.0708
  23   0.0000       0.126605         3.4451
  24   0.0000       0.130098         3.5402
  25   0.0000       0.144499         3.9320

MULLIKEN ATOMIC CHARGES
-----------------------
   0 C :   -0.523943
   1 C :   -0.272707
   2 C :   -0.234528
   3 C :   -0.278758
   4 N :   -0.646493
   5 H :    0.160360
   6 H :    0.159111
   7 H :    0.155739
   8 H :    0.148028
   9 H :    0.147331
  10 H :    0.143881
  11 H :    0.148438
  12 H :    0.159158
  13 H :    0.154976
  14 H :    0.284157
  15 H :    0.295250
Sum of atomic charges:    0.0000000

LOEWDIN ATOMIC CHARGES
----------------------
   0 C :   -0.436679
   1 C :   -0.319354
   2 C :   -0.308162
   3 C :   -0.090000
   4 N :   -0.761902
   5 H :    0.153188
   6 H :    0.151736
   7 H :    0.152241
   8 H :    0.152741
   9 H :    0.153347
  10 H :    0.159347
  11 H :    0.158211
  12 H :    0.175141
  13 H :    0.175386
  14 H :    0.242887
  15 H :    0.241871

  Mayer bond orders larger than 0.100000
B(  0-C ,  1-C ) :   0.8825 B(  0-C ,  5-H ) :   0.9789 B(  0-C ,  6-H ) :   0.9733
B(  0-C ,  7-H ) :   0.9662 B(  1-C ,  2-C ) :   0.9114 B(  1-C ,  8-H ) :   0.9725
B(  1-C ,  9-H ) :   0.9829 B(  2-C ,  3-C ) :   0.8523 B(  2-C , 10-H ) :   0.9877
B(  2-C , 11-H ) :   0.9625 B(  3-C ,  4-N ) :   0.9693 B(  3-C , 12-H ) :   0.9929
B(  3-C , 13-H ) :   0.9790 B(  4-N , 14-H ) :   0.9032 B(  4-N , 15-H ) :   0.8991

Dispersion correction           -0.003612249
FINAL SINGLE POINT ENERGY      -213.725765808863

DIPOLE MOMENT
-------------

Method             : SCF
Type of density    : Electron Density
Multiplicity       :   1
Irrep              :   0
Energy             :  -213.7328991008012622 Eh
Relativity type    :
Basis              : AO
                                X                 Y                 Z
Electronic contribution:     -1.856286078       0.254314801       0.223239172
Nuclear contribution   :      2.424092428      -0.302039308       0.259592881
                        -----------------------------------------
Total Dipole Moment    :      0.567806350      -0.047724506       0.482832053
                        -----------------------------------------
Magnitude (a.u.)       :      0.746865765
Magnitude (Debye)      :      1.898381908

Rotational constants in cm-1:             0.251057             0.108802             0.085824
Rotational constants in MHz :          7526.502237          3261.797770          2572.926618

                             ****ORCA TERMINATED NORMALLY****
TOTAL RUN TIME: 0 days 0 hours 0 minutes 19 seconds 381 msec
