                         Program Version 6.0.0  -   RELEASE  -
|  1> ! pbe def2-sv(p) def2/J RI DEFGRID1 loosescf d4 GCP(DFT/SV(P)) printgap
|  2> %output
|  3>     printlevel normal
|  4> end
|  5> * xyz 0 1
|  6> C -3.542777184 1.6165704017 -0.9840804278
|  7> C -3.1238195382 0.1766758005 -0.7022925973
|  8> H -3.5010896961 -0.4845619199 -1.488146641
|  9> C -1.6252659844 -0.0342074889 -0.5848809494
| 10> C -1.1115188949 -1.316763184 -0.8614462436
| 11> C 0.2243382404 -1.5791824576 -0.7521353056
| 12> C 1.1289594214 -0.5707748018 -0.3592043611
| 13> C 2.5132813471 -0.8160400462 -0.2470153459
| 14> C 3.3658601579 0.1875124201 0.139950805
| 15> C 2.853478639 1.474365037 0.4289002626
| 16> C 1.5198052146 1.7295769321 0.3273389234
| 17> C 0.6161837652 0.7184977122 -0.0694130917
| 18> C -0.767510381 0.9562156791 -0.1815033526
| 19> O 4.716918226 0.0671545366 0.2811074694
| 20> C 5.3148223158 -1.185851786 0.0117878323
| 21> C -3.6733247273 -0.3394878655 0.6125670377
| 22> O -4.0744516275 -1.4737407377 0.7767681021
| 23> O -3.6231210121 0.5463770131 1.5895332129
| 24> H -4.6079991245 1.6524357635 -1.1984546369
| 25> H -3.3451283813 2.2539772401 -0.1279597361
| 26> H -2.9985749965 1.9925473485 -1.8458274825
| 27> H -1.797040959 -2.0986893045 -1.1553644181
| 28> H 0.6043039859 -2.567072015 -0.9675431665
| 29> H 2.8716545953 -1.8077140504 -0.4738820149
| 30> H 3.556701698 2.2350411403 0.7289889393
| 31> H 1.1360473896 2.7138073372 0.5490315177
| 32> H -1.132664609 1.9425805837 0.0556725824
| 33> H 4.9319203988 -1.9574756587 0.6848559239
| 34> H 6.3782455087 -1.0407480931 0.1873240375
| 35> H 5.1499862051 -1.4857147457 -1.0264122245
| 36> H -3.9346089755 0.1858323128 2.442044494
| 37> *
| 38>
| 39>                          ****END OF INPUT****

CARTESIAN COORDINATES (ANGSTROEM)
---------------------------------
  C     -3.542777    1.616570   -0.984080
  C     -3.123820    0.176676   -0.702293
  H     -3.501090   -0.484562   -1.488147
  C     -1.625266   -0.034207   -0.584881
  C     -1.111519   -1.316763   -0.861446
  C      0.224338   -1.579182   -0.752135
  C      1.128959   -0.570775   -0.359204
  C      2.513281   -0.816040   -0.247015
  C      3.365860    0.187512    0.139951
  C      2.853479    1.474365    0.428900
  C      1.519805    1.729577    0.327339
  C      0.616184    0.718498   -0.069413
  C     -0.767510    0.956216   -0.181503
  O      4.716918    0.067155    0.281107
  C      5.314822   -1.185852    0.011788
  C     -3.673325   -0.339488    0.612567
  O     -4.074452   -1.473741    0.776768
  O     -3.623121    0.546377    1.589533
  H     -4.607999    1.652436   -1.198455
  H     -3.345128    2.253977   -0.127960
  H     -2.998575    1.992547   -1.845827
  H     -1.797041   -2.098689   -1.155364
  H      0.604304   -2.567072   -0.967543
  H      2.871655   -1.807714   -0.473882
  H      3.556702    2.235041    0.728989
  H      1.136047    2.713807    0.549032
  H     -1.132665    1.942581    0.055673
  H      4.931920   -1.957476    0.684856
  H      6.378246   -1.040748    0.187324
  H      5.149986   -1.485715   -1.026412
  H     -3.934609    0.185832    2.442044

 Total Charge           Charge          ....    0
 Multiplicity           Mult            ....    1
 Number of Electrons    NEL             ....  122
 Basis Dimension        Dim             ....  266

ORBITAL ENERGIES
----------------

  NO   OCC          E(Eh)            E(eV)
   0   2.0000     -18.801397      -511.6120
   1   2.0000     -18.792617      -511.3731
   2   2.0000     -18.732745      -509.7439
   3   2.0000     -10.011670      -272.4314
   4   2.0000      -9.953651      -270.8526
   5   2.0000      -9.942919      -270.5606
   6   2.0000      -9.912599      -269.7355
   7   2.0000      -9.903957      -269.5004
   8   2.0000      -9.901718      -269.4395
   9   2.0000      -9.898046      -269.3395
  10   2.0000      -9.895405      -269.2677
  11   2.0000      -9.892249      -269.1818
  12   2.0000      -9.890887      -269.1447
  13   2.0000      -9.890059      -269.1222
  14   2.0000      -9.889638      -269.1107
  15   2.0000      -9.889230      -269.0996
  16   2.0000      -9.883663      -268.9481
  17   2.0000      -1.010079       -27.4856
  18   2.0000      -0.972128       -26.4529
  19   2.0000      -0.908054       -24.7094
  20   2.0000      -0.795586       -21.6490
  21   2.0000      -0.757467       -20.6117
  22   2.0000      -0.720074       -19.5942
  23   2.0000      -0.694405       -18.8957
  24   2.0000      -0.673464       -18.3259
  25   2.0000      -0.646993       -17.6056
  26   2.0000      -0.628124       -17.0921
  27   2.0000      -0.604332       -16.4447
  28   2.0000      -0.570415       -15.5218
  29   2.0000      -0.555546       -15.1172
  30   2.0000      -0.538377       -14.6500
  31   2.0000      -0.523593       -14.2477
  32   2.0000      -0.481691       -13.1075
  33   2.0000      -0.464860       -12.6495
  34   2.0000      -0.459694       -12.5089
  35   2.0000      -0.434283       -11.8174
  36   2.0000      -0.423925       -11.5356
  37   2.0000      -0.419235       -11.4080
  38   2.0000      -0.413346       -11.2477
  39   2.0000      -0.407296       -11.0831
  40   2.0000      -0.399679       -10.8758
  41   2.0000      -0.393173       -10.6988
  42   2.0000      -0.378900       -10.3104
  43   2.0000      -0.375363       -10.2142
  44   2.0000      -0.365643        -9.9497
  45   2.0000      -0.358780        -9.7629
  46   2.0000      -0.354182        -9.6378
  47   2.0000      -0.343283        -9.3412
  48   2.0000      -0.329722        -8.9722
  49   2.0000      -0.327401        -8.9090
  50   2.0000      -0.320024        -8.7083
  51   2.0000      -0.313270        -8.5245
  52   2.0000      -0.302923        -8.2430
  53   2.0000      -0.292852        -7.9689
  54   2.0000      -0.281796        -7.6681
  55   2.0000      -0.271972        -7.4007
  56   2.0000      -0.267277        -7.2730
  57   2.0000      -0.252585        -6.8732
  58   2.0000      -0.216526        -5.8920
  59   2.0000      -0.208704        -5.6791
  60   2.0000      -0.185177        -5.0389
  61   0.0000      -0.064419        -1.7529
  62   0.0000      -0.041166        -1.1202
  63   0.0000      -0.009038        -0.2459
  64   0.0000      -0.002030        -0.0552
  65   0.0000       0.022658         0.6165

MULLIKEN ATOMIC CHARGES
-----------------------
   0 C :   -0.222163
   1 C :   -0.138497
   2 H :    0.086226
   3 C :    0.091376
   4 C :   -0.086443
   5 C :   -0.128912
   6 C :    0.170561
   7 C :   -0.301602
   8 C :    0.295132
   9 C :   -0.092766
  10 C :   -0.131529
  11 C :    0.186013
  12 C :   -0.219751
  13 O :   -0.268208
  14 C :   -0.114164
  15 C :    0.119772
  16 O :   -0.190654
  17 O :   -0.286935
  18 H :    0.107212
  19 H :    0.128167
  20 H :    0.108318
  21 H :    0.048515
  22 H :    0.033790
  23 H :    0.024520
  24 H :    0.045865
  25 H :    0.040532
  26 H :    0.026346
  27 H :    0.112285
  28 H :    0.126725
  29 H :    0.112103
  30 H :    0.318165
Sum of atomic charges:   -0.0000000

LOEWDIN ATOMIC CHARGES
----------------------
   0 C :   -0.327713
   1 C :   -0.150140
   2 H :    0.138087
   3 C :   -0.041052
   4 C :   -0.114124
   5 C :   -0.114726
   6 C :   -0.017455
   7 C :   -0.173773
   8 C :    0.029439
   9 C :   -0.133808
  10 C :   -0.105383
  11 C :   -0.034181
  12 C :   -0.108343
  13 O :   -0.089154
  14 C :   -0.202051
  15 C :    0.035362
  16 O :   -0.174328
  17 O :   -0.195958
  18 H :    0.125401
  19 H :    0.125065
  20 H :    0.125745
  21 H :    0.127628
  22 H :    0.122874
  23 H :    0.125978
  24 H :    0.131233
  25 H :    0.125410
  26 H :    0.124192
  27 H :    0.110781
  28 H :    0.123077
  29 H :    0.110690
  30 H :    0.301224

  Mayer bond orders larger than 0.100000
B(  0-C ,  1-C ) :   1.1103 B(  0-C , 18-H ) :   0.9473 B(  0-C , 19-H ) :   0.9231
B(  0-C , 20-H ) :   0.9438 B(  1-C ,  2-H ) :   0.8800 B(  1-C ,  3-C ) :   1.0063
B(  1-C , 15-C ) :   0.9294 B(  3-C ,  4-C ) :   1.2700 B(  3-C , 12-C ) :   1.4417
B(  4-C ,  5-C ) :   1.4414 B(  4-C , 21-H ) :   0.9589 B(  5-C ,  6-C ) :   1.2283
B(  5-C , 22-H ) :   0.9655 B(  6-C ,  7-C ) :   1.2016 B(  6-C , 11-C ) :   1.2553
B(  7-C ,  8-C ) :   1.3341 B(  7-C , 23-H ) :   0.9644 B(  8-C ,  9-C ) :   1.2452
B(  8-C , 13-O ) :   1.1399 B(  9-C , 10-C ) :   1.4579 B(  9-C , 24-H ) :   0.9615
B( 10-C , 11-C ) :   1.2043 B( 10-C , 25-H ) :   0.9668 B( 11-C , 12-C ) :   1.2184
B( 12-C , 26-H ) :   0.9571 B( 13-O , 14-C ) :   0.9880 B( 14-C , 27-H ) :   0.9415
B( 14-C , 28-H ) :   0.9585 B( 14-C , 29-H ) :   0.9414 B( 15-C , 16-O ) :   2.1037
B( 15-C , 17-O ) :   1.2803 B( 17-O , 30-H ) :   0.8182

Dispersion correction           -0.039080395
FINAL SINGLE POINT ENERGY      -765.992904331330

DIPOLE MOMENT
-------------

Method             : SCF
Type of density    : Electron Density
Multiplicity       :   1
Irrep              :   0
Energy             :  -766.0870987455614340 Eh
Relativity type    :
Basis              : AO
                                X                 Y                 Z
Electronic contribution:     -2.517151154      -1.215906869       3.482457763
Nuclear contribution   :      3.062839620       1.426642992      -3.371667769
                        -----------------------------------------
Total Dipole Moment    :      0.545688466       0.210736123       0.110789994
                        -----------------------------------------
Magnitude (a.u.)       :      0.595365466
Magnitude (Debye)      :      1.513298751

Rotational constants in cm-1:             0.042312             0.007274             0.006778
Rotational constants in MHz :          1268.468159           218.068706           203.212102

                             ****ORCA TERMINATED NORMALLY****
TOTAL RUN TIME: 0 days 0 hours 0 minutes 27 seconds 928 msec
