                         Program Version 6.0.0  -   RELEASE  -
|  1> ! r2scan-3c def2/J RI DEFGRID2 scfconv6 printgap
|  2> %output
|  3>     printlevel normal
|  4> end
|  5> * xyz 0 1
|  6> C -3.2626869103 -0.8899111952 0.3360288298
|  7> C -1.8709579913 -0.6241383035 -0.2249683414
|  8> C -1.5013037915 0.854882166 -0.1333010683
|  9> C -0.1201474944 1.1377443152 -0.7342502482
| 10> C 0.9574084482 0.4746035089 0.0834320566
| 11> O 1.147961091 0.6666909574 1.2664014358
| 12> O 1.6771746754 -0.3661919275 -0.6502947505
| 13> C 2.7482552529 -1.0845896631 -0.030164467
| 14> H -4.0084262278 -0.3220827278 -0.2149373318
| 15> H -3.5086223699 -1.9459561856 0.2618921434
| 16> H -3.3122206277 -0.5974607489 1.3823218122
| 17> H -1.1366378648 -1.2135962106 0.3300934546
| 18> H -1.8316616783 -0.9426244878 -1.2687274291
| 19> H -1.4976522808 1.1654477323 0.9135980994
| 20> H -2.2457673319 1.4490808093 -0.6643900447
| 21> H 0.0668179453 2.2124246813 -0.7169034208
| 22> H -0.0569412737 0.7723931417 -1.7583965273
| 23> H 2.7257509299 -2.0916043071 -0.4383917588
| 24> H 2.6097860574 -1.0961978176 1.0515988716
| 25> H 3.6890328177 -0.5939598222 -0.2776219255
| 26> *
| 27>
| 28>                          ****END OF INPUT****

CARTESIAN COORDINATES (ANGSTROEM)
---------------------------------
  C     -3.262687   -0.889911    0.336029
  C     -1.870958   -0.624138   -0.224968
  C     -1.501304    0.854882   -0.133301
  C     -0.120147    1.137744   -0.734250
  C      0.957408    0.474604    0.083432
  O      1.147961    0.666691    1.266401
  O      1.677175   -0.366192   -0.650295
  C      2.748255   -1.084590   -0.030164
  H     -4.008426   -0.322083   -0.214937
  H     -3.508622   -1.945956    0.261892
  H     -3.312221   -0.597461    1.382322
  H     -1.136638   -1.213596    0.330093
  H     -1.831662   -0.942624   -1.268727
  H     -1.497652    1.165448    0.913598
  H     -2.245767    1.449081   -0.664390
  H      0.066818    2.212425   -0.716903
  H     -0.056941    0.772393   -1.758397
  H      2.725751   -2.091604   -0.438392
  H      2.609786   -1.096198    1.051599
  H      3.689033   -0.593960   -0.277622

 Total Charge           Charge          ....    0
 Multiplicity           Mult            ....    1
 Number of Electrons    NEL             ....   64
 Basis Dimension        Dim             ....  222

ORBITAL ENERGIES
----------------

  NO   OCC          E(Eh)            E(eV)
   0   2.0000     -18.999937      -517.0146
   1   2.0000     -18.928443      -515.0691
   2   2.0000     -10.152755      -276.2705
   3   2.0000     -10.085331      -274.4358
   4   2.0000     -10.041127      -273.2330
   5   2.0000     -10.032747      -273.0049
   6   2.0000     -10.027432      -272.8603
   7   2.0000     -10.017156      -272.5807
   8   2.0000      -1.072752       -29.1911
   9   2.0000      -0.976405       -26.5693
  10   2.0000      -0.778126       -21.1739
  11   2.0000      -0.726916       -19.7804
  12   2.0000      -0.687279       -18.7018
  13   2.0000      -0.614976       -16.7343
  14   2.0000      -0.558020       -15.1845
  15   2.0000      -0.526602       -14.3296
  16   2.0000      -0.473861       -12.8944
  17   2.0000      -0.455572       -12.3967
  18   2.0000      -0.445444       -12.1211
  19   2.0000      -0.426294       -11.6000
  20   2.0000      -0.410429       -11.1683
  21   2.0000      -0.397228       -10.8091
  22   2.0000      -0.386895       -10.5280
  23   2.0000      -0.355232        -9.6664
  24   2.0000      -0.349281        -9.5044
  25   2.0000      -0.337301        -9.1784
  26   2.0000      -0.319148        -8.6844
  27   2.0000      -0.306604        -8.3431
  28   2.0000      -0.300001        -8.1635
  29   2.0000      -0.295774        -8.0484
  30   2.0000      -0.272691        -7.4203
  31   2.0000      -0.237952        -6.4750
  32   0.0000      -0.015390        -0.4188
  33   0.0000       0.066002         1.7960
  34   0.0000       0.090125         2.4524
  35   0.0000       0.107941         2.9372
  36   0.0000       0.114175         3.1069

MULLIKEN ATOMIC CHARGES
-----------------------
   0 C :   -0.474201
   1 C :   -0.249644
   2 C :   -0.268133
   3 C :   -0.286449
   4 C :    0.356022
   5 O :   -0.428630
   6 O :   -0.186790
   7 C :   -0.303282
   8 H :    0.140619
   9 H :    0.147094
  10 H :    0.146152
  11 H :    0.146446
  12 H :    0.140338
  13 H :    0.165542
  14 H :    0.144866
  15 H :    0.166758
  16 H :    0.159968
  17 H :    0.148794
  18 H :    0.184398
  19 H :    0.150133
Sum of atomic charges:    0.0000000

LOEWDIN ATOMIC CHARGES
----------------------
   0 C :   -0.421956
   1 C :   -0.309241
   2 C :   -0.286306
   3 C :   -0.228567
   4 C :    0.351448
   5 O :   -0.439892
   6 O :   -0.602971
   7 C :   -0.046938
   8 H :    0.149795
   9 H :    0.150876
  10 H :    0.152045
  11 H :    0.157095
  12 H :    0.151722
  13 H :    0.169478
  14 H :    0.155921
  15 H :    0.181387
  16 H :    0.177752
  17 H :    0.174815
  18 H :    0.190725
  19 H :    0.172813

  Mayer bond orders larger than 0.100000
B(  0-C ,  1-C ) :   0.9031 B(  0-C ,  8-H ) :   0.9824 B(  0-C ,  9-H ) :   0.9742
B(  0-C , 10-H ) :   0.9833 B(  1-C ,  2-C ) :   0.9234 B(  1-C , 11-H ) :   0.9591
B(  1-C , 12-H ) :   0.9696 B(  2-C ,  3-C ) :   0.8888 B(  2-C , 13-H ) :   0.9746
B(  2-C , 14-H ) :   0.9703 B(  3-C ,  4-C ) :   0.9486 B(  3-C , 15-H ) :   0.9449
B(  3-C , 16-H ) :   0.9987 B(  4-C ,  5-O ) :   1.8351 B(  4-C ,  6-O ) :   1.0494
B(  6-O ,  7-C ) :   0.8437 B(  7-C , 17-H ) :   0.9681 B(  7-C , 18-H ) :   0.9664
B(  7-C , 19-H ) :   0.9610

Dispersion correction           -0.005128885
FINAL SINGLE POINT ENERGY      -386.230303803080

DIPOLE MOMENT
-------------

Method             : SCF
Type of density    : Electron Density
Multiplicity       :   1
Irrep              :   0
Energy             :  -386.2372244534130914 Eh
Relativity type    :
Basis              : AO
                                X                 Y                 Z
Electronic contribution:      7.962940432       2.658756855       0.631787265
Nuclear contribution   :     -7.938662752      -3.001557791      -1.304170108
                        -----------------------------------------
Total Dipole Moment    :      0.024277680      -0.342800936      -0.672382843
                        -----------------------------------------
Magnitude (a.u.)       :      0.755116266
Magnitude (Debye)      :      1.919353016

Rotational constants in cm-1:             0.122590             0.033992             0.031743
Rotational constants in MHz :          3675.151700          1019.047328           951.631320

                             ****ORCA TERMINATED NORMALLY****
TOTAL RUN TIME: 0 days 0 hours 0 minutes 26 seconds 110 msec
