                         Program Version 6.0.0  -   RELEASE  -
|  1> ! r2scan-3c def2/J RI DEFGRID2 scfconv6 printgap
|  2> %output
|  3>     printlevel normal
|  4> end
|  5> %cpcm
|  6>     smd true
|  7>     smdsolvent "water"
|  8> end
|  9> * xyz 0 1
| 10> C -3.2626869103 -0.8899111952 0.3360288298
| 11> C -1.8709579913 -0.6241383035 -0.2249683414
| 12> C -1.5013037915 0.854882166 -0.1333010683
| 13> C -0.1201474944 1.1377443152 -0.7342502482
| 14> C 0.9574084482 0.4746035089 0.0834320566
| 15> O 1.147961091 0.6666909574 1.2664014358
| 16> O 1.6771746754 -0.3661919275 -0.6502947505
| 17> C 2.7482552529 -1.0845896631 -0.030164467
| 18> H -4.0084262278 -0.3220827278 -0.2149373318
| 19> H -3.5086223699 -1.9459561856 0.2618921434
| 20> H -3.3122206277 -0.5974607489 1.3823218122
| 21> H -1.1366378648 -1.2135962106 0.3300934546
| 22> H -1.8316616783 -0.9426244878 -1.2687274291
| 23> H -1.4976522808 1.1654477323 0.9135980994
| 24> H -2.2457673319 1.4490808093 -0.6643900447
| 25> H 0.0668179453 2.2124246813 -0.7169034208
| 26> H -0.0569412737 0.7723931417 -1.7583965273
| 27> H 2.7257509299 -2.0916043071 -0.4383917588
| 28> H 2.6097860574 -1.0961978176 1.0515988716
| 29> H 3.6890328177 -0.5939598222 -0.2776219255
| 30> *
| 31>
| 32>                          ****END OF INPUT****

CARTESIAN COORDINATES (ANGSTROEM)
---------------------------------
  C     -3.262687   -0.889911    0.336029
  C     -1.870958   -0.624138   -0.224968
  C     -1.501304    0.854882   -0.133301
  C     -0.120147    1.137744   -0.734250
  C      0.957408    0.474604    0.083432
  O      1.147961    0.666691    1.266401
  O      1.677175   -0.366192   -0.650295
  C      2.748255   -1.084590   -0.030164
  H     -4.008426   -0.322083   -0.214937
  H     -3.508622   -1.945956    0.261892
  H     -3.312221   -0.597461    1.382322
  H     -1.136638   -1.213596    0.330093
  H     -1.831662   -0.942624   -1.268727
  H     -1.497652    1.165448    0.913598
  H     -2.245767    1.449081   -0.664390
  H      0.066818    2.212425   -0.716903
  H     -0.056941    0.772393   -1.758397
  H      2.725751   -2.091604   -0.438392
  H      2.609786   -1.096198    1.051599
  H      3.689033   -0.593960   -0.277622

 Total Charge           Charge          ....    0
 Multiplicity           Mult            ....    1
 Number of Electrons    NEL             ....   64
 Basis Dimension        Dim             ....  222

ORBITAL ENERGIES
----------------

  NO   OCC          E(Eh)            E(eV)
   0   2.0000     -19.005260      -517.1594
   1   2.0000     -18.943416      -515.4765
   2   2.0000     -10.162680      -276.5406
   3   2.0000     -10.075132      -274.1583
   4   2.0000     -10.035390      -273.0769
   5   2.0000     -10.026025      -272.8220
   6   2.0000     -10.019248      -272.6376
   7   2.0000     -10.008819      -272.3538
   8   2.0000      -1.079404       -29.3721
   9   2.0000      -0.989437       -26.9239
  10   2.0000      -0.772678       -21.0256
  11   2.0000      -0.722044       -19.6478
  12   2.0000      -0.680984       -18.5305
  13   2.0000      -0.608481       -16.5576
  14   2.0000      -0.551386       -15.0040
  15   2.0000      -0.524725       -14.2785
  16   2.0000      -0.474095       -12.9008
  17   2.0000      -0.457261       -12.4427
  18   2.0000      -0.451163       -12.2768
  19   2.0000      -0.424663       -11.5557
  20   2.0000      -0.403320       -10.9749
  21   2.0000      -0.390567       -10.6279
  22   2.0000      -0.385064       -10.4781
  23   2.0000      -0.356005        -9.6874
  24   2.0000      -0.342722        -9.3259
  25   2.0000      -0.330933        -9.0052
  26   2.0000      -0.319899        -8.7049
  27   2.0000      -0.301208        -8.1963
  28   2.0000      -0.292214        -7.9516
  29   2.0000      -0.288716        -7.8564
  30   2.0000      -0.279934        -7.6174
  31   2.0000      -0.253615        -6.9012
  32   0.0000      -0.022842        -0.6216
  33   0.0000       0.070272         1.9122
  34   0.0000       0.097712         2.6589
  35   0.0000       0.116591         3.1726
  36   0.0000       0.125509         3.4153

MULLIKEN ATOMIC CHARGES
-----------------------
   0 C :   -0.517879
   1 C :   -0.256490
   2 C :   -0.280002
   3 C :   -0.304125
   4 C :    0.391184
   5 O :   -0.511995
   6 O :   -0.205677
   7 C :   -0.321579
   8 H :    0.154814
   9 H :    0.157931
  10 H :    0.154680
  11 H :    0.152705
  12 H :    0.154994
  13 H :    0.160766
  14 H :    0.164837
  15 H :    0.194694
  16 H :    0.175685
  17 H :    0.175630
  18 H :    0.181898
  19 H :    0.177928
Sum of atomic charges:    0.0000000

LOEWDIN ATOMIC CHARGES
----------------------
   0 C :   -0.430226
   1 C :   -0.311032
   2 C :   -0.286158
   3 C :   -0.226112
   4 C :    0.360496
   5 O :   -0.499784
   6 O :   -0.605538
   7 C :   -0.041811
   8 H :    0.153582
   9 H :    0.153543
  10 H :    0.153333
  11 H :    0.157523
  12 H :    0.156370
  13 H :    0.165882
  14 H :    0.163499
  15 H :    0.191025
  16 H :    0.185123
  17 H :    0.186640
  18 H :    0.190242
  19 H :    0.183402

  Mayer bond orders larger than 0.100000
B(  0-C ,  1-C ) :   0.8932 B(  0-C ,  8-H ) :   0.9797 B(  0-C ,  9-H ) :   0.9711
B(  0-C , 10-H ) :   0.9817 B(  1-C ,  2-C ) :   0.9136 B(  1-C , 11-H ) :   0.9585
B(  1-C , 12-H ) :   0.9678 B(  2-C ,  3-C ) :   0.8720 B(  2-C , 13-H ) :   0.9812
B(  2-C , 14-H ) :   0.9647 B(  3-C ,  4-C ) :   0.9506 B(  3-C , 15-H ) :   0.9392
B(  3-C , 16-H ) :   0.9886 B(  4-C ,  5-O ) :   1.7685 B(  4-C ,  6-O ) :   1.0730
B(  6-O ,  7-C ) :   0.8302 B(  7-C , 17-H ) :   0.9582 B(  7-C , 18-H ) :   0.9627
B(  7-C , 19-H ) :   0.9525

Dispersion correction           -0.005128885
FINAL SINGLE POINT ENERGY      -386.234653980575

DIPOLE MOMENT
-------------

Method             : SCF
Type of density    : Electron Density
Multiplicity       :   1
Irrep              :   0
Energy             :  -386.2415746309081896 Eh
Relativity type    :
Basis              : AO
                                X                 Y                 Z
Electronic contribution:      7.970476804       2.559665429       0.285949346
Nuclear contribution   :     -7.938662752      -3.001557791      -1.304170108
                        -----------------------------------------
Total Dipole Moment    :      0.031814051      -0.441892362      -1.018220762
                        -----------------------------------------
Magnitude (a.u.)       :      1.110429878
Magnitude (Debye)      :      2.822488443

Rotational constants in cm-1:             0.122590             0.033992             0.031743
Rotational constants in MHz :          3675.151700          1019.047328           951.631320

                             ****ORCA TERMINATED NORMALLY****
TOTAL RUN TIME: 0 days 0 hours 0 minutes 33 seconds 941 msec
