                         Program Version 6.0.0  -   RELEASE  -
|  1> ! pbe def2-sv(p) def2/J RI DEFGRID1 loosescf d4 GCP(DFT/SV(P)) printgap
|  2> %output
|  3>     printlevel normal
|  4> end
|  5> * xyz 0 1
|  6> C -3.5417014645 -0.8125260094 0.057184455
|  7> C -2.1585286858 -0.3718755536 0.51771635
|  8> C -1.2284186478 -0.1163703637 -0.6722366294
|  9> C 0.0934731774 0.4411542063 -0.2138341891
| 10> O 0.2236605266 1.378233155 0.5461404132
| 11> O 1.1136263016 -0.2154483985 -0.7525214726
| 12> C 2.449928436 0.1891977598 -0.4079880375
| 13> C 2.9170054204 -0.4947302084 0.8677457755
| 14> H -3.4741344368 -1.7251355312 -0.5294982628
| 15> H -4.1806172923 -1.0004184735 0.9156034549
| 16> H -4.0038212701 -0.0418303626 -0.5544148431
| 17> H -1.7208841676 -1.1417442905 1.1562803765
| 18> H -2.2317487446 0.5452772641 1.1053637726
| 19> H -1.6868294419 0.6252719704 -1.3300799338
| 20> H -1.0479527857 -1.0294756612 -1.2380454324
| 21> H 3.0561970372 -0.1084506346 -1.2639121018
| 22> H 2.4649701879 1.2768660257 -0.2895868885
| 23> H 2.3012139268 -0.1774976397 1.7064772087
| 24> H 2.8437557587 -1.5737290341 0.7621360703
| 25> H 3.9485931205 -0.2222458003 1.0650699361
| 26> *
| 27>
| 28>                          ****END OF INPUT****

CARTESIAN COORDINATES (ANGSTROEM)
---------------------------------
  C     -3.541701   -0.812526    0.057184
  C     -2.158529   -0.371876    0.517716
  C     -1.228419   -0.116370   -0.672237
  C      0.093473    0.441154   -0.213834
  O      0.223661    1.378233    0.546140
  O      1.113626   -0.215448   -0.752521
  C      2.449928    0.189198   -0.407988
  C      2.917005   -0.494730    0.867746
  H     -3.474134   -1.725136   -0.529498
  H     -4.180617   -1.000418    0.915603
  H     -4.003821   -0.041830   -0.554415
  H     -1.720884   -1.141744    1.156280
  H     -2.231749    0.545277    1.105364
  H     -1.686829    0.625272   -1.330080
  H     -1.047953   -1.029476   -1.238045
  H      3.056197   -0.108451   -1.263912
  H      2.464970    1.276866   -0.289587
  H      2.301214   -0.177498    1.706477
  H      2.843756   -1.573729    0.762136
  H      3.948593   -0.222246    1.065070

 Total Charge           Charge          ....    0
 Multiplicity           Mult            ....    1
 Number of Electrons    NEL             ....   64
 Basis Dimension        Dim             ....  136

ORBITAL ENERGIES
----------------

  NO   OCC          E(Eh)            E(eV)
   0   2.0000     -18.796901      -511.4897
   1   2.0000     -18.730742      -509.6894
   2   2.0000     -10.004087      -272.2251
   3   2.0000      -9.945616      -270.6340
   4   2.0000      -9.895991      -269.2836
   5   2.0000      -9.890449      -269.1328
   6   2.0000      -9.886491      -269.0251
   7   2.0000      -9.878146      -268.7980
   8   2.0000      -1.003192       -27.2983
   9   2.0000      -0.907805       -24.7026
  10   2.0000      -0.726100       -19.7582
  11   2.0000      -0.697179       -18.9712
  12   2.0000      -0.638858       -17.3842
  13   2.0000      -0.588401       -16.0112
  14   2.0000      -0.531755       -14.4698
  15   2.0000      -0.492955       -13.4140
  16   2.0000      -0.451951       -12.2982
  17   2.0000      -0.431205       -11.7337
  18   2.0000      -0.425099       -11.5675
  19   2.0000      -0.400237       -10.8910
  20   2.0000      -0.390449       -10.6247
  21   2.0000      -0.376093       -10.2340
  22   2.0000      -0.353541        -9.6203
  23   2.0000      -0.353068        -9.6075
  24   2.0000      -0.337792        -9.1918
  25   2.0000      -0.328573        -8.9409
  26   2.0000      -0.311099        -8.4654
  27   2.0000      -0.298784        -8.1303
  28   2.0000      -0.293819        -7.9952
  29   2.0000      -0.287094        -7.8122
  30   2.0000      -0.254923        -6.9368
  31   2.0000      -0.217207        -5.9105
  32   0.0000      -0.018947        -0.5156
  33   0.0000       0.039718         1.0808
  34   0.0000       0.053748         1.4625
  35   0.0000       0.075834         2.0635
  36   0.0000       0.082203         2.2369

MULLIKEN ATOMIC CHARGES
-----------------------
   0 C :   -0.250786
   1 C :   -0.224675
   2 C :   -0.143527
   3 C :    0.118234
   4 O :   -0.213277
   5 O :   -0.233700
   6 C :   -0.012742
   7 C :   -0.304038
   8 H :    0.097399
   9 H :    0.106250
  10 H :    0.098810
  11 H :    0.092421
  12 H :    0.109850
  13 H :    0.108542
  14 H :    0.093067
  15 H :    0.101075
  16 H :    0.106727
  17 H :    0.126468
  18 H :    0.112155
  19 H :    0.111747
Sum of atomic charges:   -0.0000000

LOEWDIN ATOMIC CHARGES
----------------------
   0 C :   -0.339629
   1 C :   -0.227983
   2 C :   -0.246883
   3 C :    0.038593
   4 O :   -0.173951
   5 O :   -0.066826
   6 C :   -0.113614
   7 C :   -0.356212
   8 H :    0.117002
   9 H :    0.121484
  10 H :    0.118106
  11 H :    0.117927
  12 H :    0.124273
  13 H :    0.140762
  14 H :    0.127168
  15 H :    0.116635
  16 H :    0.119079
  17 H :    0.130319
  18 H :    0.123793
  19 H :    0.129958

  Mayer bond orders larger than 0.100000
B(  0-C ,  1-C ) :   1.1591 B(  0-C ,  8-H ) :   0.9526 B(  0-C ,  9-H ) :   0.9528
B(  0-C , 10-H ) :   0.9543 B(  1-C ,  2-C ) :   1.1272 B(  1-C , 11-H ) :   0.9317
B(  1-C , 12-H ) :   0.9199 B(  2-C ,  3-C ) :   1.0225 B(  2-C , 13-H ) :   0.8896
B(  2-C , 14-H ) :   0.9095 B(  3-C ,  4-O ) :   2.0337 B(  3-C ,  5-O ) :   1.2257
B(  5-O ,  6-C ) :   0.9214 B(  6-C ,  7-C ) :   1.1733 B(  6-C , 15-H ) :   0.9374
B(  6-C , 16-H ) :   0.9129 B(  7-C , 17-H ) :   0.9464 B(  7-C , 18-H ) :   0.9491
B(  7-C , 19-H ) :   0.9446

Dispersion correction           -0.014641696
FINAL SINGLE POINT ENERGY      -385.458521646027

DIPOLE MOMENT
-------------

Method             : SCF
Type of density    : Electron Density
Multiplicity       :   1
Irrep              :   0
Energy             :  -385.5336157013649085 Eh
Relativity type    :
Basis              : AO
                                X                 Y                 Z
Electronic contribution:      3.713900833       3.742076913      -1.720007192
Nuclear contribution   :     -3.480712589      -4.273099579       1.409249663
                        -----------------------------------------
Total Dipole Moment    :      0.233188244      -0.531022666      -0.310757529
                        -----------------------------------------
Magnitude (a.u.)       :      0.657975737
Magnitude (Debye)      :      1.672441413

Rotational constants in cm-1:             0.166047             0.029401             0.028992
Rotational constants in MHz :          4977.963443           881.405635           869.143703

                             ****ORCA TERMINATED NORMALLY****
TOTAL RUN TIME: 0 days 0 hours 0 minutes 10 seconds 521 msec
