                         Program Version 6.0.0  -   RELEASE  -
|  1> ! r2scan-3c def2/J RI DEFGRID2 scfconv6 printgap
|  2> %output
|  3>     printlevel normal
|  4> end
|  5> * xyz 0 1
|  6> C 2.3208333414 0.301899321 -0.0031755898
|  7> C 1.1626520269 -0.1960339664 0.3867825641
|  8> C -7.47795e-05 -0.4596858722 -0.5236813793
|  9> C -1.1616417892 0.4092472578 -0.1413026208
| 10> C -2.3217064395 -0.0419295862 0.2969554462
| 11> H 3.1262612939 0.4824538005 0.6881024332
| 12> H 2.5147346683 0.5441511006 -1.0354528332
| 13> H 0.9879021438 -0.4278674104 1.4293953555
| 14> H -0.2911279295 -1.509917415 -0.447939387
| 15> H 0.2900031907 -0.2462534037 -1.5551060773
| 16> H -0.9842087943 1.4732770515 -0.2293788181
| 17> H -3.1261164744 0.620379075 0.5678957002
| 18> H -2.5181911884 -1.0970564106 0.3968494079
| 19> *
| 20>
| 21>                          ****END OF INPUT****

CARTESIAN COORDINATES (ANGSTROEM)
---------------------------------
  C      2.320833    0.301899   -0.003176
  C      1.162652   -0.196034    0.386783
  C     -0.000075   -0.459686   -0.523681
  C     -1.161642    0.409247   -0.141303
  C     -2.321706   -0.041930    0.296955
  H      3.126261    0.482454    0.688102
  H      2.514735    0.544151   -1.035453
  H      0.987902   -0.427867    1.429395
  H     -0.291128   -1.509917   -0.447939
  H      0.290003   -0.246253   -1.555106
  H     -0.984209    1.473277   -0.229379
  H     -3.126116    0.620379    0.567896
  H     -2.518191   -1.097056    0.396849

 Total Charge           Charge          ....    0
 Multiplicity           Mult            ....    1
 Number of Electrons    NEL             ....   38
 Basis Dimension        Dim             ....  135

ORBITAL ENERGIES
----------------

  NO   OCC          E(Eh)            E(eV)
   0   2.0000     -10.038880      -273.1718
   1   2.0000     -10.037655      -273.1385
   2   2.0000     -10.037638      -273.1380
   3   2.0000     -10.022720      -272.7321
   4   2.0000     -10.022709      -272.7318
   5   2.0000      -0.783926       -21.3317
   6   2.0000      -0.728054       -19.8114
   7   2.0000      -0.650113       -17.6905
   8   2.0000      -0.540411       -14.7053
   9   2.0000      -0.519576       -14.1384
  10   2.0000      -0.457245       -12.4423
  11   2.0000      -0.409634       -11.1467
  12   2.0000      -0.402937       -10.9645
  13   2.0000      -0.402767       -10.9599
  14   2.0000      -0.333066        -9.0632
  15   2.0000      -0.325929        -8.8690
  16   2.0000      -0.317282        -8.6337
  17   2.0000      -0.249135        -6.7793
  18   2.0000      -0.236481        -6.4350
  19   0.0000      -0.032185        -0.8758
  20   0.0000       0.006043         0.1644
  21   0.0000       0.097237         2.6460
  22   0.0000       0.124571         3.3897
  23   0.0000       0.131555         3.5798

MULLIKEN ATOMIC CHARGES
-----------------------
   0 C :   -0.358944
   1 C :   -0.078736
   2 C :   -0.303613
   3 C :   -0.079005
   4 C :   -0.358819
   5 H :    0.141712
   6 H :    0.139610
   7 H :    0.156221
   8 H :    0.151910
   9 H :    0.152052
  10 H :    0.156289
  11 H :    0.141703
  12 H :    0.139620
Sum of atomic charges:   -0.0000000

LOEWDIN ATOMIC CHARGES
----------------------
   0 C :   -0.313511
   1 C :   -0.186275
   2 C :   -0.287126
   3 C :   -0.186246
   4 C :   -0.313510
   5 H :    0.157632
   6 H :    0.154953
   7 H :    0.163792
   8 H :    0.166927
   9 H :    0.166962
  10 H :    0.163818
  11 H :    0.157628
  12 H :    0.154958

  Mayer bond orders larger than 0.100000
B(  0-C ,  1-C ) :   1.9290 B(  0-C ,  5-H ) :   0.9595 B(  0-C ,  6-H ) :   0.9841
B(  1-C ,  2-C ) :   0.9126 B(  1-C ,  7-H ) :   0.9262 B(  2-C ,  3-C ) :   0.9129
B(  2-C ,  8-H ) :   0.9853 B(  2-C ,  9-H ) :   0.9853 B(  3-C ,  4-C ) :   1.9291
B(  3-C , 10-H ) :   0.9261 B(  4-C , 11-H ) :   0.9595 B(  4-C , 12-H ) :   0.9841

Dispersion correction           -0.002835985
FINAL SINGLE POINT ENERGY      -195.227961266700

DIPOLE MOMENT
-------------

Method             : SCF
Type of density    : Electron Density
Multiplicity       :   1
Irrep              :   0
Energy             :  -195.2289052247416521 Eh
Relativity type    :
Basis              : AO
                                X                 Y                 Z
Electronic contribution:      0.000694784       0.118203877       0.137051103
Nuclear contribution   :     -0.000697146      -0.150889645      -0.174156888
                        -----------------------------------------
Total Dipole Moment    :     -0.000002362      -0.032685768      -0.037105785
                        -----------------------------------------
Magnitude (a.u.)       :      0.049448950
Magnitude (Debye)      :      0.125689243

Rotational constants in cm-1:             0.646629             0.080796             0.080046
Rotational constants in MHz :         19385.442674          2422.189378          2399.711506

                             ****ORCA TERMINATED NORMALLY****
TOTAL RUN TIME: 0 days 0 hours 0 minutes 12 seconds 441 msec
