                         Program Version 6.0.0  -   RELEASE  -
|  1> ! r2scan-3c def2/J RI DEFGRID2 scfconv6 printgap
|  2> %output
|  3>     printlevel normal
|  4> end
|  5> %cpcm
|  6>     smd true
|  7>     smdsolvent "water"
|  8> end
|  9> * xyz 0 1
| 10> C 2.3208333414 0.301899321 -0.0031755898
| 11> C 1.1626520269 -0.1960339664 0.3867825641
| 12> C -7.47795e-05 -0.4596858722 -0.5236813793
| 13> C -1.1616417892 0.4092472578 -0.1413026208
| 14> C -2.3217064395 -0.0419295862 0.2969554462
| 15> H 3.1262612939 0.4824538005 0.6881024332
| 16> H 2.5147346683 0.5441511006 -1.0354528332
| 17> H 0.9879021438 -0.4278674104 1.4293953555
| 18> H -0.2911279295 -1.509917415 -0.447939387
| 19> H 0.2900031907 -0.2462534037 -1.5551060773
| 20> H -0.9842087943 1.4732770515 -0.2293788181
| 21> H -3.1261164744 0.620379075 0.5678957002
| 22> H -2.5181911884 -1.0970564106 0.3968494079
| 23> *
| 24>
| 25>                          ****END OF INPUT****

CARTESIAN COORDINATES (ANGSTROEM)
---------------------------------
  C      2.320833    0.301899   -0.003176
  C      1.162652   -0.196034    0.386783
  C     -0.000075   -0.459686   -0.523681
  C     -1.161642    0.409247   -0.141303
  C     -2.321706   -0.041930    0.296955
  H      3.126261    0.482454    0.688102
  H      2.514735    0.544151   -1.035453
  H      0.987902   -0.427867    1.429395
  H     -0.291128   -1.509917   -0.447939
  H      0.290003   -0.246253   -1.555106
  H     -0.984209    1.473277   -0.229379
  H     -3.126116    0.620379    0.567896
  H     -2.518191   -1.097056    0.396849

 Total Charge           Charge          ....    0
 Multiplicity           Mult            ....    1
 Number of Electrons    NEL             ....   38
 Basis Dimension        Dim             ....  135

ORBITAL ENERGIES
----------------

  NO   OCC          E(Eh)            E(eV)
   0   2.0000     -10.035006      -273.0664
   1   2.0000     -10.034985      -273.0658
   2   2.0000     -10.031005      -272.9575
   3   2.0000     -10.017137      -272.5802
   4   2.0000     -10.017133      -272.5801
   5   2.0000      -0.779585       -21.2136
   6   2.0000      -0.724990       -19.7280
   7   2.0000      -0.645035       -17.5523
   8   2.0000      -0.535073       -14.5601
   9   2.0000      -0.513531       -13.9739
  10   2.0000      -0.451235       -12.2787
  11   2.0000      -0.404172       -10.9981
  12   2.0000      -0.397228       -10.8091
  13   2.0000      -0.397048       -10.8042
  14   2.0000      -0.325455        -8.8561
  15   2.0000      -0.319561        -8.6957
  16   2.0000      -0.311087        -8.4651
  17   2.0000      -0.248279        -6.7560
  18   2.0000      -0.236040        -6.4230
  19   0.0000      -0.030943        -0.8420
  20   0.0000       0.007485         0.2037
  21   0.0000       0.103839         2.8256
  22   0.0000       0.130591         3.5536
  23   0.0000       0.141285         3.8446

MULLIKEN ATOMIC CHARGES
-----------------------
   0 C :   -0.424888
   1 C :   -0.116775
   2 C :   -0.287630
   3 C :   -0.117187
   4 C :   -0.424798
   5 H :    0.166663
   6 H :    0.167623
   7 H :    0.179641
   8 H :    0.171666
   9 H :    0.171608
  10 H :    0.179758
  11 H :    0.166626
  12 H :    0.167693
Sum of atomic charges:    0.0000000

LOEWDIN ATOMIC CHARGES
----------------------
   0 C :   -0.331558
   1 C :   -0.193966
   2 C :   -0.290709
   3 C :   -0.193982
   4 C :   -0.331570
   5 H :    0.163797
   6 H :    0.163105
   7 H :    0.169848
   8 H :    0.174133
   9 H :    0.174101
  10 H :    0.169879
  11 H :    0.163787
  12 H :    0.163133

  Mayer bond orders larger than 0.100000
B(  0-C ,  1-C ) :   1.9082 B(  0-C ,  5-H ) :   0.9591 B(  0-C ,  6-H ) :   0.9786
B(  1-C ,  2-C ) :   0.8981 B(  1-C ,  7-H ) :   0.9243 B(  2-C ,  3-C ) :   0.8983
B(  2-C ,  8-H ) :   0.9782 B(  2-C ,  9-H ) :   0.9782 B(  3-C ,  4-C ) :   1.9084
B(  3-C , 10-H ) :   0.9242 B(  4-C , 11-H ) :   0.9591 B(  4-C , 12-H ) :   0.9786

Dispersion correction           -0.002835985
FINAL SINGLE POINT ENERGY      -195.226900095879

DIPOLE MOMENT
-------------

Method             : SCF
Type of density    : Electron Density
Multiplicity       :   1
Irrep              :   0
Energy             :  -195.2278440539205064 Eh
Relativity type    :
Basis              : AO
                                X                 Y                 Z
Electronic contribution:      0.000607316       0.089615244       0.104894770
Nuclear contribution   :     -0.000697146      -0.150889645      -0.174156888
                        -----------------------------------------
Total Dipole Moment    :     -0.000089831      -0.061274401      -0.069262118
                        -----------------------------------------
Magnitude (a.u.)       :      0.092475949
Magnitude (Debye)      :      0.235055183

Rotational constants in cm-1:             0.646629             0.080796             0.080046
Rotational constants in MHz :         19385.442674          2422.189378          2399.711506

                             ****ORCA TERMINATED NORMALLY****
TOTAL RUN TIME: 0 days 0 hours 0 minutes 13 seconds 381 msec
