                         Program Version 6.0.1  -  RELEASE   -
|  1> ! pbe def2-sv(p) def2/J RI DEFGRID1 loosescf d4 GCP(DFT/SV(P)) printgap
|  2> %output
|  3>     printlevel normal
|  4> end
|  5> * xyz 0 1
|  6> C -3.7318536962 0.9506380522 -1.6168326435
|  7> C -3.2795211317 -0.2647667824 -0.80243929
|  8> H -3.5545920644 -1.1790537583 -1.334627296
|  9> C -1.7792228834 -0.2454916779 -0.6016208711
| 10> C -0.9626335729 -1.1818963187 -1.2234084298
| 11> C 0.4087787348 -1.1416077357 -1.0603053849
| 12> C 1.0205860469 -0.1754377325 -0.2636183172
| 13> C 0.1774698019 0.7486632233 0.3468245192
| 14> C -1.1923390877 0.7332514679 0.1899558627
| 15> F 0.7094321638 1.7417724854 1.1185660087
| 16> C 2.4819106781 -0.1476433155 -0.0945067497
| 17> C 3.0569258512 0.0397469712 1.1595905932
| 18> C 4.4324600093 0.0525014011 1.3029225848
| 19> C 5.2507142145 -0.1185076207 0.1988638299
| 20> C 4.6867124553 -0.305450723 -1.0525860248
| 21> C 3.3124153809 -0.3231283473 -1.1994997436
| 22> C -3.9253953389 -0.2534816193 0.5755667284
| 23> O -4.1649745125 0.7594113584 1.1894154624
| 24> O -4.189026542 -1.4370258884 1.1196685497
| 25> H -4.7931885966 0.8785087129 -1.8392334905
| 26> H -3.563465188 1.8625145451 -1.0506276166
| 27> H -3.1740460509 1.0021200622 -2.5472370884
| 28> H -1.3975370254 -1.9456796812 -1.8489101286
| 29> H 1.0279239803 -1.8818294341 -1.5418266843
| 30> H -1.7907711855 1.4767721585 0.6934147039
| 31> H 2.4259402495 0.1648552183 2.027123737
| 32> H 4.8655765356 0.1965947013 2.2812851665
| 33> H 6.3238171223 -0.1046723401 0.3136033102
| 34> H 5.3202632565 -0.4357800089 -1.9168192449
| 35> H 2.8753249882 -0.4519247172 -2.1781354725
| 36> H -3.9825375948 -2.2019082131 0.5520197317
| 37> *
| 38>
| 39>                          ****END OF INPUT****

CARTESIAN COORDINATES (ANGSTROEM)
---------------------------------
  C     -3.731854    0.950638   -1.616833
  C     -3.279521   -0.264767   -0.802439
  H     -3.554592   -1.179054   -1.334627
  C     -1.779223   -0.245492   -0.601621
  C     -0.962634   -1.181896   -1.223408
  C      0.408779   -1.141608   -1.060305
  C      1.020586   -0.175438   -0.263618
  C      0.177470    0.748663    0.346825
  C     -1.192339    0.733251    0.189956
  F      0.709432    1.741772    1.118566
  C      2.481911   -0.147643   -0.094507
  C      3.056926    0.039747    1.159591
  C      4.432460    0.052501    1.302923
  C      5.250714   -0.118508    0.198864
  C      4.686712   -0.305451   -1.052586
  C      3.312415   -0.323128   -1.199500
  C     -3.925395   -0.253482    0.575567
  O     -4.164975    0.759411    1.189415
  O     -4.189027   -1.437026    1.119669
  H     -4.793189    0.878509   -1.839233
  H     -3.563465    1.862515   -1.050628
  H     -3.174046    1.002120   -2.547237
  H     -1.397537   -1.945680   -1.848910
  H      1.027924   -1.881829   -1.541827
  H     -1.790771    1.476772    0.693415
  H      2.425940    0.164855    2.027124
  H      4.865577    0.196595    2.281285
  H      6.323817   -0.104672    0.313603
  H      5.320263   -0.435780   -1.916819
  H      2.875325   -0.451925   -2.178135
  H     -3.982538   -2.201908    0.552020

 Total Charge           Charge          ....    0
 Multiplicity           Mult            ....    1
 Number of Electrons    NEL             ....  128
 Basis Dimension        Dim             ....  278

ORBITAL ENERGIES
----------------

  NO   OCC          E(Eh)            E(eV)
   0   2.0000     -24.273647      -660.5195
   1   2.0000     -18.806609      -511.7539
   2   2.0000     -18.739402      -509.9250
   3   2.0000     -10.019560      -272.6461
   4   2.0000      -9.981423      -271.6083
   5   2.0000      -9.929187      -270.1869
   6   2.0000      -9.923801      -270.0404
   7   2.0000      -9.916568      -269.8435
   8   2.0000      -9.911155      -269.6962
   9   2.0000      -9.907920      -269.6082
  10   2.0000      -9.905163      -269.5332
  11   2.0000      -9.902204      -269.4527
  12   2.0000      -9.897912      -269.3359
  13   2.0000      -9.897302      -269.3193
  14   2.0000      -9.896523      -269.2981
  15   2.0000      -9.896060      -269.2855
  16   2.0000      -9.895815      -269.2788
  17   2.0000      -9.891006      -269.1479
  18   2.0000      -1.097863       -29.8744
  19   2.0000      -1.010979       -27.5101
  20   2.0000      -0.922066       -25.0907
  21   2.0000      -0.804532       -21.8924
  22   2.0000      -0.782302       -21.2875
  23   2.0000      -0.743294       -20.2261
  24   2.0000      -0.699109       -19.0237
  25   2.0000      -0.683181       -18.5903
  26   2.0000      -0.674860       -18.3639
  27   2.0000      -0.651550       -17.7296
  28   2.0000      -0.604370       -16.4458
  29   2.0000      -0.579493       -15.7688
  30   2.0000      -0.569155       -15.4875
  31   2.0000      -0.557087       -15.1591
  32   2.0000      -0.542857       -14.7719
  33   2.0000      -0.531554       -14.4643
  34   2.0000      -0.495265       -13.4768
  35   2.0000      -0.475797       -12.9471
  36   2.0000      -0.472329       -12.8527
  37   2.0000      -0.444107       -12.0848
  38   2.0000      -0.433714       -11.8019
  39   2.0000      -0.418882       -11.3984
  40   2.0000      -0.415247       -11.2994
  41   2.0000      -0.404561       -11.0087
  42   2.0000      -0.402031       -10.9398
  43   2.0000      -0.396766       -10.7965
  44   2.0000      -0.394718       -10.7408
  45   2.0000      -0.382389       -10.4053
  46   2.0000      -0.378137       -10.2896
  47   2.0000      -0.368933       -10.0392
  48   2.0000      -0.367003        -9.9867
  49   2.0000      -0.347284        -9.4501
  50   2.0000      -0.342378        -9.3166
  51   2.0000      -0.338394        -9.2082
  52   2.0000      -0.325912        -8.8685
  53   2.0000      -0.324355        -8.8261
  54   2.0000      -0.319312        -8.6889
  55   2.0000      -0.312197        -8.4953
  56   2.0000      -0.305195        -8.3048
  57   2.0000      -0.295833        -8.0500
  58   2.0000      -0.276630        -7.5275
  59   2.0000      -0.255920        -6.9639
  60   2.0000      -0.234382        -6.3779
  61   2.0000      -0.233878        -6.3642
  62   2.0000      -0.227179        -6.1818
  63   2.0000      -0.210963        -5.7406
  64   0.0000      -0.068145        -1.8543
  65   0.0000      -0.046129        -1.2552
  66   0.0000      -0.039023        -1.0619
  67   0.0000      -0.030990        -0.8433
  68   0.0000      -0.011904        -0.3239

MULLIKEN ATOMIC CHARGES
-----------------------
   0 C :   -0.218884
   1 C :   -0.196253
   2 H :    0.055001
   3 C :    0.116661
   4 C :   -0.113586
   5 C :   -0.118490
   6 C :    0.031662
   7 C :    0.275341
   8 C :   -0.223828
   9 F :   -0.168087
  10 C :    0.112618
  11 C :   -0.097260
  12 C :   -0.051973
  13 C :   -0.045036
  14 C :   -0.048903
  15 C :   -0.111247
  16 C :    0.162471
  17 O :   -0.178526
  18 O :   -0.276366
  19 H :    0.109153
  20 H :    0.130067
  21 H :    0.108540
  22 H :    0.034924
  23 H :    0.050969
  24 H :    0.074690
  25 H :    0.053098
  26 H :    0.055796
  27 H :    0.055961
  28 H :    0.053628
  29 H :    0.047641
  30 H :    0.320215
Sum of atomic charges:    0.0000000

LOEWDIN ATOMIC CHARGES
----------------------
   0 C :   -0.315934
   1 C :   -0.171299
   2 H :    0.119154
   3 C :   -0.027448
   4 C :   -0.138799
   5 C :   -0.103354
   6 C :   -0.053348
   7 C :    0.083853
   8 C :   -0.139130
   9 F :   -0.051570
  10 C :   -0.029240
  11 C :   -0.107715
  12 C :   -0.119074
  13 C :   -0.121240
  14 C :   -0.120670
  15 C :   -0.114124
  16 C :    0.040662
  17 O :   -0.144951
  18 O :   -0.193857
  19 H :    0.125101
  20 H :    0.132870
  21 H :    0.125002
  22 H :    0.121724
  23 H :    0.129862
  24 H :    0.145896
  25 H :    0.126890
  26 H :    0.125785
  27 H :    0.124685
  28 H :    0.124783
  29 H :    0.124785
  30 H :    0.300701

  Mayer bond orders larger than 0.100000
B(  0-C ,  1-C ) :   1.0987 B(  0-C , 19-H ) :   0.9487 B(  0-C , 20-H ) :   0.9364
B(  0-C , 21-H ) :   0.9455 B(  1-C ,  2-H ) :   0.8718 B(  1-C ,  3-C ) :   0.9955
B(  1-C , 16-C ) :   0.9347 B(  3-C ,  4-C ) :   1.3728 B(  3-C ,  8-C ) :   1.3137
B(  4-C ,  5-C ) :   1.3484 B(  4-C , 22-H ) :   0.9657 B(  5-C ,  6-C ) :   1.3708
B(  5-C , 23-H ) :   0.9567 B(  6-C ,  7-C ) :   1.3268 B(  6-C , 10-C ) :   0.9744
B(  7-C ,  8-C ) :   1.3283 B(  7-C ,  9-F ) :   1.1097 B(  8-C , 24-H ) :   0.9518
B( 10-C , 11-C ) :   1.3774 B( 10-C , 15-C ) :   1.3775 B( 11-C , 12-C ) :   1.3762
B( 11-C , 25-H ) :   0.9605 B( 12-C , 13-C ) :   1.3742 B( 12-C , 26-H ) :   0.9631
B( 13-C , 14-C ) :   1.3765 B( 13-C , 27-H ) :   0.9655 B( 14-C , 15-C ) :   1.3724
B( 14-C , 28-H ) :   0.9637 B( 15-C , 29-H ) :   0.9583 B( 16-C , 17-O ) :   2.0889
B( 16-C , 18-O ) :   1.2379 B( 18-O , 30-H ) :   0.8237

Dispersion correction           -0.040149040
FINAL SINGLE POINT ENERGY      -828.011511683030

DIPOLE MOMENT
-------------

Method             : SCF
Type of density    : Electron Density
Multiplicity       :   1
Irrep              :   0
Energy             :  -828.1010705196529216 Eh
Relativity type    :
Basis              : AO
                                X                 Y                 Z
Electronic contribution:      0.581694372       2.819796656       7.615261466
Nuclear contribution   :     -0.234323515      -4.081337619      -8.873409562
                        -----------------------------------------
Total Dipole Moment    :      0.347370857      -1.261540964      -1.258148096
                        -----------------------------------------
Magnitude (a.u.)       :      1.815237931
Magnitude (Debye)      :      4.613968142

Rotational constants in cm-1:             0.038591             0.006445             0.006116
Rotational constants in MHz :          1156.942454           193.223770           183.343798

                             ****ORCA TERMINATED NORMALLY****
TOTAL RUN TIME: 0 days 0 hours 0 minutes 16 seconds 572 msec
