                         Program Version 6.0.0  -   RELEASE  -
|  1> ! pbe def2-sv(p) def2/J RI DEFGRID1 loosescf d4 GCP(DFT/SV(P)) printgap
|  2> %output
|  3>     printlevel normal
|  4> end
|  5> * xyz 0 1
|  6> C -3.4161680139 0.6046088993 0.4676147873
|  7> C -2.7560209063 -0.6830255721 -0.0121104293
|  8> C -1.3520696563 -0.4678772208 -0.5761918915
|  9> C -0.3425328533 -0.0413639203 0.4923554926
| 10> C 1.0170269108 0.1943439137 -0.1079763406
| 11> O 1.2294690683 0.7585609788 -1.1607878957
| 12> O 1.9827538806 -0.2978373393 0.6620337506
| 13> C 3.33750669 -0.1342025348 0.2323346167
| 14> H -3.4172803178 1.3484482951 -0.3257957439
| 15> H -4.4456935853 0.4113086178 0.758152623
| 16> H -2.8960404421 1.0173130626 1.3277472531
| 17> H -2.7076452214 -1.3975025743 0.8117368505
| 18> H -3.3728098134 -1.1236239715 -0.7975708184
| 19> H -1.3767613819 0.2942549113 -1.3575286492
| 20> H -1.0055467496 -1.3968786483 -1.0341535226
| 21> H -0.2532358246 -0.7897629925 1.2792595379
| 22> H -0.6607777449 0.9024842693 0.9395932922
| 23> H 3.6865705077 0.8640321985 0.4973574001
| 24> H 3.4034026678 -0.263624519 -0.8485828228
| 25> H 3.9100791754 -0.8936357677 0.7559319914
| 26> *
| 27>
| 28>                          ****END OF INPUT****

CARTESIAN COORDINATES (ANGSTROEM)
---------------------------------
  C     -3.416168    0.604609    0.467615
  C     -2.756021   -0.683026   -0.012110
  C     -1.352070   -0.467877   -0.576192
  C     -0.342533   -0.041364    0.492355
  C      1.017027    0.194344   -0.107976
  O      1.229469    0.758561   -1.160788
  O      1.982754   -0.297837    0.662034
  C      3.337507   -0.134203    0.232335
  H     -3.417280    1.348448   -0.325796
  H     -4.445694    0.411309    0.758153
  H     -2.896040    1.017313    1.327747
  H     -2.707645   -1.397503    0.811737
  H     -3.372810   -1.123624   -0.797571
  H     -1.376761    0.294255   -1.357529
  H     -1.005547   -1.396879   -1.034154
  H     -0.253236   -0.789763    1.279260
  H     -0.660778    0.902484    0.939593
  H      3.686571    0.864032    0.497357
  H      3.403403   -0.263625   -0.848583
  H      3.910079   -0.893636    0.755932

 Total Charge           Charge          ....    0
 Multiplicity           Mult            ....    1
 Number of Electrons    NEL             ....   64
 Basis Dimension        Dim             ....  136

ORBITAL ENERGIES
----------------

  NO   OCC          E(Eh)            E(eV)
   0   2.0000     -18.797811      -511.5144
   1   2.0000     -18.732115      -509.7268
   2   2.0000     -10.002303      -272.1765
   3   2.0000      -9.939139      -270.4577
   4   2.0000      -9.895195      -269.2619
   5   2.0000      -9.887232      -269.0453
   6   2.0000      -9.886111      -269.0147
   7   2.0000      -9.875840      -268.7353
   8   2.0000      -1.003192       -27.2982
   9   2.0000      -0.907640       -24.6981
  10   2.0000      -0.729913       -19.8619
  11   2.0000      -0.684862       -18.6360
  12   2.0000      -0.644080       -17.5263
  13   2.0000      -0.584494       -15.9049
  14   2.0000      -0.518127       -14.0990
  15   2.0000      -0.498045       -13.5525
  16   2.0000      -0.450132       -12.2487
  17   2.0000      -0.440104       -11.9758
  18   2.0000      -0.416959       -11.3460
  19   2.0000      -0.409776       -11.1506
  20   2.0000      -0.395911       -10.7733
  21   2.0000      -0.372954       -10.1486
  22   2.0000      -0.366406        -9.9704
  23   2.0000      -0.351864        -9.5747
  24   2.0000      -0.329751        -8.9730
  25   2.0000      -0.322481        -8.7752
  26   2.0000      -0.304676        -8.2907
  27   2.0000      -0.289444        -7.8762
  28   2.0000      -0.287217        -7.8156
  29   2.0000      -0.284062        -7.7297
  30   2.0000      -0.256306        -6.9744
  31   2.0000      -0.217755        -5.9254
  32   0.0000      -0.017237        -0.4690
  33   0.0000       0.037996         1.0339
  34   0.0000       0.058127         1.5817
  35   0.0000       0.066947         1.8217
  36   0.0000       0.072518         1.9733

MULLIKEN ATOMIC CHARGES
-----------------------
   0 C :   -0.297997
   1 C :   -0.148269
   2 C :   -0.194872
   3 C :   -0.162429
   4 C :    0.112568
   5 O :   -0.210957
   6 O :   -0.237372
   7 C :   -0.116709
   8 H :    0.102806
   9 H :    0.104882
  10 H :    0.107398
  11 H :    0.080987
  12 H :    0.087961
  13 H :    0.103475
  14 H :    0.090064
  15 H :    0.094502
  16 H :    0.118605
  17 H :    0.118297
  18 H :    0.125837
  19 H :    0.121221
Sum of atomic charges:   -0.0000000

LOEWDIN ATOMIC CHARGES
----------------------
   0 C :   -0.343608
   1 C :   -0.233674
   2 C :   -0.221234
   3 C :   -0.248993
   4 C :    0.037230
   5 O :   -0.171130
   6 O :   -0.075387
   7 C :   -0.205953
   8 H :    0.119274
   9 H :    0.121036
  10 H :    0.115737
  11 H :    0.113799
  12 H :    0.118327
  13 H :    0.123269
  14 H :    0.118902
  15 H :    0.129010
  16 H :    0.142199
  17 H :    0.119089
  18 H :    0.121715
  19 H :    0.120391

  Mayer bond orders larger than 0.100000
B(  0-C ,  1-C ) :   1.1533 B(  0-C ,  8-H ) :   0.9547 B(  0-C ,  9-H ) :   0.9513
B(  0-C , 10-H ) :   0.9508 B(  1-C ,  2-C ) :   1.1264 B(  1-C , 11-H ) :   0.9230
B(  1-C , 12-H ) :   0.9266 B(  2-C ,  3-C ) :   1.1228 B(  2-C , 13-H ) :   0.9145
B(  2-C , 14-H ) :   0.9285 B(  3-C ,  4-C ) :   1.0219 B(  3-C , 15-H ) :   0.9080
B(  3-C , 16-H ) :   0.8827 B(  4-C ,  5-O ) :   2.0544 B(  4-C ,  6-O ) :   1.2251
B(  6-O ,  7-C ) :   0.9386 B(  7-C , 17-H ) :   0.9581 B(  7-C , 18-H ) :   0.9416
B(  7-C , 19-H ) :   0.9603

Dispersion correction           -0.014777716
FINAL SINGLE POINT ENERGY      -385.452355486308

DIPOLE MOMENT
-------------

Method             : SCF
Type of density    : Electron Density
Multiplicity       :   1
Irrep              :   0
Energy             :  -385.5274212400395299 Eh
Relativity type    :
Basis              : AO
                                X                 Y                 Z
Electronic contribution:      8.659414917       0.630224996      -1.317976515
Nuclear contribution   :     -8.523214467      -0.956841061       1.874705066
                        -----------------------------------------
Total Dipole Moment    :      0.136200449      -0.326616065       0.556728551
                        -----------------------------------------
Magnitude (a.u.)       :      0.659678176
Magnitude (Debye)      :      1.676768668

Rotational constants in cm-1:             0.198586             0.027101             0.026106
Rotational constants in MHz :          5953.468445           812.454544           782.652038

                             ****ORCA TERMINATED NORMALLY****
TOTAL RUN TIME: 0 days 0 hours 0 minutes 9 seconds 425 msec
