                         Program Version 6.0.0  -   RELEASE  -
|  1> ! pbe def2-sv(p) def2/J RI DEFGRID1 loosescf d4 GCP(DFT/SV(P)) printgap
|  2> %output
|  3>     printlevel normal
|  4> end
|  5> * xyz 0 1
|  6> C -4.6975845126 -0.9959883893 -0.2473099308
|  7> C -3.9992345304 -2.1878378984 -0.1115057476
|  8> C -2.6240966213 -2.1722303423 0.0306856572
|  9> C -1.9222742406 -0.9684945154 0.0386914963
| 10> C -2.6280782495 0.2319859038 -0.0988509978
| 11> C -4.0144262398 0.2053719944 -0.2404952741
| 12> C -1.9249381351 1.5207732725 -0.0965936929
| 13> O -2.5316202103 2.5837001517 -0.2131193383
| 14> C -0.4590905722 1.4787402417 0.0480569294
| 15> C 0.2058019765 2.6924750239 0.0253949776
| 16> C 1.5919469839 2.7382139339 0.1483803234
| 17> C 2.30829475 1.5811296362 0.2966308101
| 18> C 1.6724650352 0.3161139722 0.3361022276
| 19> C 0.250374473 0.2636888514 0.200239578
| 20> C -0.4548771128 -1.0003936272 0.1986985422
| 21> O 0.1110127044 -2.101362049 0.3181820611
| 22> N 2.3798696294 -0.8073820589 0.5199589216
| 23> C 3.8123196711 -0.916597891 0.5726789971
| 24> C 4.4539318111 -0.8970321658 -0.8243578457
| 25> O 5.85230745 -0.9717485427 -0.6528580947
| 26> H -5.7704324538 -1.0052438302 -0.3579311241
| 27> H -4.527700668 -3.1282014661 -0.1161187868
| 28> H -2.0629443415 -3.0885462915 0.1390294136
| 29> H -4.5315053008 1.147849212 -0.3441454485
| 30> H -0.376231463 3.5934780501 -0.0924249143
| 31> H 2.0993622151 3.6897597967 0.1244975653
| 32> H 3.379915614 1.6316714146 0.3883025768
| 33> H 1.8382606921 -1.6685669078 0.4794982964
| 34> H 4.065999048 -1.8617859733 1.0537498272
| 35> H 4.2483190816 -0.1122478872 1.1692413706
| 36> H 4.1743842573 0.0282038324 -1.3460340305
| 37> H 4.0837287384 -1.7511455244 -1.4055489921
| 38> H 6.2839445482 -1.0080882273 -1.5166071312
| 39> *
| 40>
| 41>                          ****END OF INPUT****

CARTESIAN COORDINATES (ANGSTROEM)
---------------------------------
  C     -4.697585   -0.995988   -0.247310
  C     -3.999235   -2.187838   -0.111506
  C     -2.624097   -2.172230    0.030686
  C     -1.922274   -0.968495    0.038691
  C     -2.628078    0.231986   -0.098851
  C     -4.014426    0.205372   -0.240495
  C     -1.924938    1.520773   -0.096594
  O     -2.531620    2.583700   -0.213119
  C     -0.459091    1.478740    0.048057
  C      0.205802    2.692475    0.025395
  C      1.591947    2.738214    0.148380
  C      2.308295    1.581130    0.296631
  C      1.672465    0.316114    0.336102
  C      0.250374    0.263689    0.200240
  C     -0.454877   -1.000394    0.198699
  O      0.111013   -2.101362    0.318182
  N      2.379870   -0.807382    0.519959
  C      3.812320   -0.916598    0.572679
  C      4.453932   -0.897032   -0.824358
  O      5.852307   -0.971749   -0.652858
  H     -5.770432   -1.005244   -0.357931
  H     -4.527701   -3.128201   -0.116119
  H     -2.062944   -3.088546    0.139029
  H     -4.531505    1.147849   -0.344145
  H     -0.376231    3.593478   -0.092425
  H      2.099362    3.689760    0.124498
  H      3.379916    1.631671    0.388303
  H      1.838261   -1.668567    0.479498
  H      4.065999   -1.861786    1.053750
  H      4.248319   -0.112248    1.169241
  H      4.174384    0.028204   -1.346034
  H      4.083729   -1.751146   -1.405549
  H      6.283945   -1.008088   -1.516607

 Total Charge           Charge          ....    0
 Multiplicity           Mult            ....    1
 Number of Electrons    NEL             ....  140
 Basis Dimension        Dim             ....  306

ORBITAL ENERGIES
----------------

  NO   OCC          E(Eh)            E(eV)
   0   2.0000     -18.757326      -510.4128
   1   2.0000     -18.748264      -510.1662
   2   2.0000     -18.741813      -509.9907
   3   2.0000     -14.019051      -381.4778
   4   2.0000      -9.977077      -271.4901
   5   2.0000      -9.973346      -271.3885
   6   2.0000      -9.958876      -270.9948
   7   2.0000      -9.945285      -270.6250
   8   2.0000      -9.934227      -270.3241
   9   2.0000      -9.912950      -269.7451
  10   2.0000      -9.911411      -269.7032
  11   2.0000      -9.911231      -269.6983
  12   2.0000      -9.910587      -269.6808
  13   2.0000      -9.908990      -269.6373
  14   2.0000      -9.908220      -269.6164
  15   2.0000      -9.907488      -269.5964
  16   2.0000      -9.906130      -269.5595
  17   2.0000      -9.904296      -269.5096
  18   2.0000      -9.903578      -269.4901
  19   2.0000      -9.894505      -269.2432
  20   2.0000      -0.940564       -25.5940
  21   2.0000      -0.934421       -25.4269
  22   2.0000      -0.933190       -25.3934
  23   2.0000      -0.873242       -23.7621
  24   2.0000      -0.796364       -21.6702
  25   2.0000      -0.781371       -21.2622
  26   2.0000      -0.724546       -19.7159
  27   2.0000      -0.702927       -19.1276
  28   2.0000      -0.687412       -18.7054
  29   2.0000      -0.683092       -18.5879
  30   2.0000      -0.655433       -17.8353
  31   2.0000      -0.608639       -16.5619
  32   2.0000      -0.594595       -16.1797
  33   2.0000      -0.578212       -15.7339
  34   2.0000      -0.568432       -15.4678
  35   2.0000      -0.535451       -14.5704
  36   2.0000      -0.523303       -14.2398
  37   2.0000      -0.497109       -13.5270
  38   2.0000      -0.495891       -13.4939
  39   2.0000      -0.476895       -12.9770
  40   2.0000      -0.463674       -12.6172
  41   2.0000      -0.437305       -11.8997
  42   2.0000      -0.434728       -11.8295
  43   2.0000      -0.428996       -11.6736
  44   2.0000      -0.420431       -11.4405
  45   2.0000      -0.409548       -11.1444
  46   2.0000      -0.406475       -11.0607
  47   2.0000      -0.405143       -11.0245
  48   2.0000      -0.391467       -10.6524
  49   2.0000      -0.387615       -10.5475
  50   2.0000      -0.382602       -10.4111
  51   2.0000      -0.371684       -10.1140
  52   2.0000      -0.366884        -9.9834
  53   2.0000      -0.357912        -9.7393
  54   2.0000      -0.349450        -9.5090
  55   2.0000      -0.343724        -9.3532
  56   2.0000      -0.333028        -9.0622
  57   2.0000      -0.330502        -8.9934
  58   2.0000      -0.321932        -8.7602
  59   2.0000      -0.316132        -8.6024
  60   2.0000      -0.307751        -8.3743
  61   2.0000      -0.300787        -8.1848
  62   2.0000      -0.277574        -7.5532
  63   2.0000      -0.248911        -6.7732
  64   2.0000      -0.241855        -6.5812
  65   2.0000      -0.240219        -6.5367
  66   2.0000      -0.228552        -6.2192
  67   2.0000      -0.217373        -5.9150
  68   2.0000      -0.204763        -5.5719
  69   2.0000      -0.188546        -5.1306
  70   0.0000      -0.125467        -3.4141
  71   0.0000      -0.078094        -2.1250
  72   0.0000      -0.051077        -1.3899
  73   0.0000      -0.030771        -0.8373
  74   0.0000       0.015460         0.4207

MULLIKEN ATOMIC CHARGES
-----------------------
   0 C :   -0.020913
   1 C :   -0.016663
   2 C :   -0.133653
   3 C :    0.050862
   4 C :    0.037929
   5 C :   -0.125879
   6 C :    0.085094
   7 O :   -0.150556
   8 C :    0.018386
   9 C :   -0.139213
  10 C :   -0.009016
  11 C :   -0.158934
  12 C :    0.076600
  13 C :    0.050577
  14 C :    0.072310
  15 O :   -0.219135
  16 N :   -0.226427
  17 C :   -0.081233
  18 C :   -0.012051
  19 O :   -0.434733
  20 H :    0.062399
  21 H :    0.062038
  22 H :    0.058687
  23 H :    0.058178
  24 H :    0.055161
  25 H :    0.059220
  26 H :    0.042590
  27 H :    0.245564
  28 H :    0.108951
  29 H :    0.112885
  30 H :    0.087349
  31 H :    0.078977
  32 H :    0.304647
Sum of atomic charges:   -0.0000000

LOEWDIN ATOMIC CHARGES
----------------------
   0 C :   -0.107818
   1 C :   -0.105197
   2 C :   -0.088585
   3 C :   -0.044712
   4 C :   -0.053410
   5 C :   -0.083096
   6 C :    0.058462
   7 O :   -0.131372
   8 C :   -0.044925
   9 C :   -0.111469
  10 C :   -0.096693
  11 C :   -0.146904
  12 C :    0.034802
  13 C :   -0.090704
  14 C :    0.056889
  15 O :   -0.177302
  16 N :   -0.124803
  17 C :   -0.167734
  18 C :   -0.132834
  19 O :   -0.346789
  20 H :    0.128687
  21 H :    0.128533
  22 H :    0.134954
  23 H :    0.135829
  24 H :    0.134928
  25 H :    0.129844
  26 H :    0.130138
  27 H :    0.243047
  28 H :    0.128980
  29 H :    0.121802
  30 H :    0.098358
  31 H :    0.099064
  32 H :    0.290032

  Mayer bond orders larger than 0.100000
B(  0-C ,  1-C ) :   1.3271 B(  0-C ,  5-C ) :   1.3363 B(  0-C , 20-H ) :   0.9668
B(  1-C ,  2-C ) :   1.3356 B(  1-C , 21-H ) :   0.9666 B(  2-C ,  3-C ) :   1.3814
B(  2-C , 22-H ) :   0.9543 B(  3-C ,  4-C ) :   1.3352 B(  3-C , 14-C ) :   0.9791
B(  4-C ,  5-C ) :   1.3784 B(  4-C ,  6-C ) :   0.9564 B(  5-C , 23-H ) :   0.9568
B(  6-C ,  7-O ) :   2.1556 B(  6-C ,  8-C ) :   0.9495 B(  8-C ,  9-C ) :   1.4279
B(  8-C , 13-C ) :   1.3010 B(  9-C , 10-C ) :   1.2301 B(  9-C , 24-H ) :   0.9568
B( 10-C , 11-C ) :   1.3856 B( 10-C , 25-H ) :   0.9661 B( 11-C , 12-C ) :   1.2427
B( 11-C , 26-H ) :   0.9518 B( 12-C , 13-C ) :   1.2163 B( 12-C , 16-N ) :   1.3872
B( 13-C , 14-C ) :   1.0252 B( 14-C , 15-O ) :   1.9621 B( 15-O , 27-H ) :   0.1440
B( 16-N , 17-C ) :   1.0278 B( 16-N , 27-H ) :   0.7639 B( 17-C , 18-C ) :   1.1090
B( 17-C , 28-H ) :   0.9199 B( 17-C , 29-H ) :   0.9037 B( 18-C , 19-O ) :   1.0946
B( 18-C , 30-H ) :   0.9212 B( 18-C , 31-H ) :   0.9181 B( 19-O , 32-H ) :   0.8493

Dispersion correction           -0.046338365
FINAL SINGLE POINT ENERGY      -896.122846723912

DIPOLE MOMENT
-------------

Method             : SCF
Type of density    : Electron Density
Multiplicity       :   1
Irrep              :   0
Energy             :  -896.2196330245790250 Eh
Relativity type    :
Basis              : AO
                                X                 Y                 Z
Electronic contribution:    -11.303995558       2.781127499       1.185229647
Nuclear contribution   :     12.171089043      -3.326115196      -1.716941885
                        -----------------------------------------
Total Dipole Moment    :      0.867093486      -0.544987697      -0.531712238
                        -----------------------------------------
Magnitude (a.u.)       :      1.153941336
Magnitude (Debye)      :      2.933085780

Rotational constants in cm-1:             0.022881             0.006937             0.005461
Rotational constants in MHz :           685.963406           207.968859           163.706517

                             ****ORCA TERMINATED NORMALLY****
TOTAL RUN TIME: 0 days 0 hours 0 minutes 34 seconds 669 msec
