                         Program Version 6.0.0  -   RELEASE  -
|  1> ! pbe def2-sv(p) def2/J RI DEFGRID1 loosescf d4 GCP(DFT/SV(P)) printgap
|  2> %output
|  3>     printlevel normal
|  4> end
|  5> * xyz 0 1
|  6> C -2.4741546707 -0.9788249744 0.9426815428
|  7> C -2.5534920238 0.0786829333 -0.1516322461
|  8> C -1.290058243 0.0888501883 -1.0182327073
|  9> C -0.0949125611 0.5375040287 -0.2171801127
| 10> O -0.0324555342 1.5691938415 0.4205673914
| 11> O 0.9006563436 -0.3340794323 -0.2907704314
| 12> C 2.1227841288 -0.03657145 0.4057487713
| 13> C 3.2304501253 -0.8839956832 -0.1905114204
| 14> H -1.6411042199 -0.7705272225 1.6116900844
| 15> H -3.3889546208 -0.9866469095 1.5291126663
| 16> H -2.3300829596 -1.9662228167 0.5107175572
| 17> H -2.6746165879 1.0654574382 0.2992548317
| 18> H -3.415885424 -0.1169222745 -0.78920933
| 19> H -1.4184533236 0.7982371612 -1.8375067494
| 20> H -1.0847603044 -0.9005621664 -1.4248793044
| 21> H 2.3263700053 1.0347765721 0.3072935726
| 22> H 1.9723842915 -0.262255444 1.4664245254
| 23> H 4.1574646758 -0.6861891718 0.3373689371
| 24> H 2.9813751536 -1.936833114 -0.0978946905
| 25> H 3.3589660818 -0.6455555134 -1.2423046575
| 26> *
| 27>
| 28>                          ****END OF INPUT****

CARTESIAN COORDINATES (ANGSTROEM)
---------------------------------
  C     -2.474155   -0.978825    0.942682
  C     -2.553492    0.078683   -0.151632
  C     -1.290058    0.088850   -1.018233
  C     -0.094913    0.537504   -0.217180
  O     -0.032456    1.569194    0.420567
  O      0.900656   -0.334079   -0.290770
  C      2.122784   -0.036571    0.405749
  C      3.230450   -0.883996   -0.190511
  H     -1.641104   -0.770527    1.611690
  H     -3.388955   -0.986647    1.529113
  H     -2.330083   -1.966223    0.510718
  H     -2.674617    1.065457    0.299255
  H     -3.415885   -0.116922   -0.789209
  H     -1.418453    0.798237   -1.837507
  H     -1.084760   -0.900562   -1.424879
  H      2.326370    1.034777    0.307294
  H      1.972384   -0.262255    1.466425
  H      4.157465   -0.686189    0.337369
  H      2.981375   -1.936833   -0.097895
  H      3.358966   -0.645556   -1.242305

 Total Charge           Charge          ....    0
 Multiplicity           Mult            ....    1
 Number of Electrons    NEL             ....   64
 Basis Dimension        Dim             ....  136

ORBITAL ENERGIES
----------------

  NO   OCC          E(Eh)            E(eV)
   0   2.0000     -18.797930      -511.5177
   1   2.0000     -18.729654      -509.6598
   2   2.0000     -10.003535      -272.2100
   3   2.0000      -9.946512      -270.6584
   4   2.0000      -9.895584      -269.2725
   5   2.0000      -9.890491      -269.1339
   6   2.0000      -9.889621      -269.1103
   7   2.0000      -9.876823      -268.7620
   8   2.0000      -1.004101       -27.3230
   9   2.0000      -0.906815       -24.6757
  10   2.0000      -0.727543       -19.7975
  11   2.0000      -0.699912       -19.0456
  12   2.0000      -0.636399       -17.3173
  13   2.0000      -0.584112       -15.8945
  14   2.0000      -0.530896       -14.4464
  15   2.0000      -0.502588       -13.6761
  16   2.0000      -0.452561       -12.3148
  17   2.0000      -0.440344       -11.9824
  18   2.0000      -0.412032       -11.2120
  19   2.0000      -0.405988       -11.0475
  20   2.0000      -0.388419       -10.5694
  21   2.0000      -0.363391        -9.8884
  22   2.0000      -0.362623        -9.8675
  23   2.0000      -0.351477        -9.5642
  24   2.0000      -0.347342        -9.4517
  25   2.0000      -0.323204        -8.7948
  26   2.0000      -0.307959        -8.3800
  27   2.0000      -0.296912        -8.0794
  28   2.0000      -0.296194        -8.0598
  29   2.0000      -0.290309        -7.8997
  30   2.0000      -0.255797        -6.9606
  31   2.0000      -0.215833        -5.8731
  32   0.0000      -0.019421        -0.5285
  33   0.0000       0.037980         1.0335
  34   0.0000       0.051926         1.4130
  35   0.0000       0.072363         1.9691
  36   0.0000       0.080020         2.1775

MULLIKEN ATOMIC CHARGES
-----------------------
   0 C :   -0.289575
   1 C :   -0.199521
   2 C :   -0.121323
   3 C :    0.088483
   4 O :   -0.214597
   5 O :   -0.236659
   6 C :   -0.031221
   7 C :   -0.275241
   8 H :    0.116089
   9 H :    0.107824
  10 H :    0.098687
  11 H :    0.108457
  12 H :    0.091241
  13 H :    0.112258
  14 H :    0.091963
  15 H :    0.110284
  16 H :    0.103354
  17 H :    0.110983
  18 H :    0.114044
  19 H :    0.114469
Sum of atomic charges:   -0.0000000

LOEWDIN ATOMIC CHARGES
----------------------
   0 C :   -0.342471
   1 C :   -0.227324
   2 C :   -0.247066
   3 C :    0.034280
   4 O :   -0.173848
   5 O :   -0.068093
   6 C :   -0.110310
   7 C :   -0.350702
   8 H :    0.120364
   9 H :    0.121673
  10 H :    0.117186
  11 H :    0.124874
  12 H :    0.117753
  13 H :    0.142077
  14 H :    0.125976
  15 H :    0.117859
  16 H :    0.115461
  17 H :    0.129970
  18 H :    0.126054
  19 H :    0.126287

  Mayer bond orders larger than 0.100000
B(  0-C ,  1-C ) :   1.1543 B(  0-C ,  8-H ) :   0.9491 B(  0-C ,  9-H ) :   0.9520
B(  0-C , 10-H ) :   0.9538 B(  1-C ,  2-C ) :   1.1133 B(  1-C , 11-H ) :   0.9194
B(  1-C , 12-H ) :   0.9284 B(  2-C ,  3-C ) :   1.0221 B(  2-C , 13-H ) :   0.8913
B(  2-C , 14-H ) :   0.9111 B(  3-C ,  4-O ) :   2.0436 B(  3-C ,  5-O ) :   1.2174
B(  5-O ,  6-C ) :   0.9119 B(  6-C ,  7-C ) :   1.1538 B(  6-C , 15-H ) :   0.9225
B(  6-C , 16-H ) :   0.9353 B(  7-C , 17-H ) :   0.9448 B(  7-C , 18-H ) :   0.9487
B(  7-C , 19-H ) :   0.9519

Dispersion correction           -0.014876330
FINAL SINGLE POINT ENERGY      -385.458064854320

DIPOLE MOMENT
-------------

Method             : SCF
Type of density    : Electron Density
Multiplicity       :   1
Irrep              :   0
Energy             :  -385.5330403699305748 Eh
Relativity type    :
Basis              : AO
                                X                 Y                 Z
Electronic contribution:      1.347619046       4.393739066      -0.868134516
Nuclear contribution   :     -1.072863897      -5.022683598       0.630559612
                        -----------------------------------------
Total Dipole Moment    :      0.274755148      -0.628944532      -0.237574904
                        -----------------------------------------
Magnitude (a.u.)       :      0.726294328
Magnitude (Debye)      :      1.846093470

Rotational constants in cm-1:             0.135569             0.033714             0.031584
Rotational constants in MHz :          4064.251828          1010.730870           946.874419

                             ****ORCA TERMINATED NORMALLY****
TOTAL RUN TIME: 0 days 0 hours 0 minutes 10 seconds 778 msec
