                         Program Version 6.0.0  -   RELEASE  -
|  1> ! r2scan-3c def2/J RI DEFGRID2 scfconv6 printgap
|  2> %output
|  3>     printlevel normal
|  4> end
|  5> * xyz 0 1
|  6> C -3.4941437381 1.7060082304 -0.933779993
|  7> C -3.152792524 0.2417764789 -0.6715374345
|  8> H -3.5915871254 -0.3908230759 -1.4487886669
|  9> C -1.6663371689 -0.0557587142 -0.5994133546
| 10> C -1.2298201035 -1.3536466428 -0.9399684775
| 11> C 0.0893977346 -1.6946264739 -0.870493643
| 12> C 1.0575269275 -0.7539562291 -0.4544720102
| 13> C 2.4232711263 -1.0677983372 -0.375737738
| 14> C 3.3454971241 -0.1303996639 0.0367607416
| 15> C 2.9138455208 1.1648947692 0.3854928456
| 16> C 1.5869612398 1.488375272 0.3159125248
| 17> C 0.6229137816 0.5505590978 -0.1016736798
| 18> C -0.7489316526 0.8683788803 -0.1750377368
| 19> O 4.6470405317 -0.5414351323 0.077420045
| 20> C 5.6432920446 0.3744771761 0.4915248628
| 21> C -3.6923769669 -0.2490834284 0.6570156992
| 22> O -4.1664384608 -1.3540795886 0.8257611628
| 23> O -3.5465991059 0.620733304 1.6389777959
| 24> H -3.2378484472 2.3245631928 -0.0794566555
| 25> H -2.9505984575 2.0558495275 -1.806855875
| 26> H -4.5605063819 1.8055180766 -1.1205297334
| 27> H -1.9642977009 -2.0825412385 -1.2512792091
| 28> H 0.4123986297 -2.6909225708 -1.1333838998
| 29> H 2.7668886385 -2.0560332577 -0.6400436019
| 30> H 3.6255051426 1.9073698598 0.7083246778
| 31> H 1.2628977852 2.4827587845 0.5844064361
| 32> H -1.0551830055 1.8619996183 0.1107982371
| 33> H 5.6935812502 1.2356371843 -0.1797858968
| 34> H 6.5772750791 -0.1808325723 0.4419713366
| 35> H 5.4714649241 0.7103066448 1.5174323968
| 36> H -3.8525188743 0.2731788144 2.4988567265
| 37> *
| 38>
| 39>                          ****END OF INPUT****

CARTESIAN COORDINATES (ANGSTROEM)
---------------------------------
  C     -3.494144    1.706008   -0.933780
  C     -3.152793    0.241776   -0.671537
  H     -3.591587   -0.390823   -1.448789
  C     -1.666337   -0.055759   -0.599413
  C     -1.229820   -1.353647   -0.939968
  C      0.089398   -1.694626   -0.870494
  C      1.057527   -0.753956   -0.454472
  C      2.423271   -1.067798   -0.375738
  C      3.345497   -0.130400    0.036761
  C      2.913846    1.164895    0.385493
  C      1.586961    1.488375    0.315913
  C      0.622914    0.550559   -0.101674
  C     -0.748932    0.868379   -0.175038
  O      4.647041   -0.541435    0.077420
  C      5.643292    0.374477    0.491525
  C     -3.692377   -0.249083    0.657016
  O     -4.166438   -1.354080    0.825761
  O     -3.546599    0.620733    1.638978
  H     -3.237848    2.324563   -0.079457
  H     -2.950598    2.055850   -1.806856
  H     -4.560506    1.805518   -1.120530
  H     -1.964298   -2.082541   -1.251279
  H      0.412399   -2.690923   -1.133384
  H      2.766889   -2.056033   -0.640044
  H      3.625505    1.907370    0.708325
  H      1.262898    2.482759    0.584406
  H     -1.055183    1.862000    0.110798
  H      5.693581    1.235637   -0.179786
  H      6.577275   -0.180833    0.441971
  H      5.471465    0.710307    1.517432
  H     -3.852519    0.273179    2.498857

 Total Charge           Charge          ....    0
 Multiplicity           Mult            ....    1
 Number of Electrons    NEL             ....  122
 Basis Dimension        Dim             ....  408

ORBITAL ENERGIES
----------------

  NO   OCC          E(Eh)            E(eV)
   0   2.0000     -19.005344      -517.1617
   1   2.0000     -18.988338      -516.6989
   2   2.0000     -18.930637      -515.1288
   3   2.0000     -10.160605      -276.4841
   4   2.0000     -10.098633      -274.7978
   5   2.0000     -10.090522      -274.5771
   6   2.0000     -10.059661      -273.7373
   7   2.0000     -10.047682      -273.4113
   8   2.0000     -10.046058      -273.3671
   9   2.0000     -10.043049      -273.2853
  10   2.0000     -10.042501      -273.2703
  11   2.0000     -10.041353      -273.2391
  12   2.0000     -10.035972      -273.0927
  13   2.0000     -10.034661      -273.0570
  14   2.0000     -10.034084      -273.0413
  15   2.0000     -10.030539      -272.9448
  16   2.0000     -10.030041      -272.9313
  17   2.0000      -1.079541       -29.3758
  18   2.0000      -1.035569       -28.1793
  19   2.0000      -0.976911       -26.5831
  20   2.0000      -0.849435       -23.1143
  21   2.0000      -0.808602       -22.0032
  22   2.0000      -0.767692       -20.8900
  23   2.0000      -0.746096       -20.3023
  24   2.0000      -0.710656       -19.3379
  25   2.0000      -0.702837       -19.1252
  26   2.0000      -0.660927       -17.9847
  27   2.0000      -0.642344       -17.4791
  28   2.0000      -0.609576       -16.5874
  29   2.0000      -0.586748       -15.9662
  30   2.0000      -0.572704       -15.5841
  31   2.0000      -0.554914       -15.1000
  32   2.0000      -0.505666       -13.7599
  33   2.0000      -0.488341       -13.2884
  34   2.0000      -0.481616       -13.1054
  35   2.0000      -0.457028       -12.4364
  36   2.0000      -0.444350       -12.0914
  37   2.0000      -0.441623       -12.0172
  38   2.0000      -0.439671       -11.9641
  39   2.0000      -0.432384       -11.7658
  40   2.0000      -0.418443       -11.3864
  41   2.0000      -0.412903       -11.2357
  42   2.0000      -0.399960       -10.8835
  43   2.0000      -0.390606       -10.6289
  44   2.0000      -0.382287       -10.4026
  45   2.0000      -0.376877       -10.2554
  46   2.0000      -0.371429       -10.1071
  47   2.0000      -0.363780        -9.8990
  48   2.0000      -0.349502        -9.5104
  49   2.0000      -0.347294        -9.4503
  50   2.0000      -0.335112        -9.1189
  51   2.0000      -0.327162        -8.9025
  52   2.0000      -0.314753        -8.5649
  53   2.0000      -0.309727        -8.4281
  54   2.0000      -0.294889        -8.0244
  55   2.0000      -0.290340        -7.9005
  56   2.0000      -0.283656        -7.7187
  57   2.0000      -0.262019        -7.1299
  58   2.0000      -0.234913        -6.3923
  59   2.0000      -0.221897        -6.0381
  60   2.0000      -0.189390        -5.1536
  61   0.0000      -0.068069        -1.8522
  62   0.0000      -0.038746        -1.0543
  63   0.0000      -0.008656        -0.2355
  64   0.0000      -0.000876        -0.0238
  65   0.0000       0.051286         1.3956

MULLIKEN ATOMIC CHARGES
-----------------------
   0 C :   -0.525884
   1 C :   -0.080607
   2 H :    0.181652
   3 C :    0.182116
   4 C :   -0.232527
   5 C :   -0.289780
   6 C :    0.254656
   7 C :   -0.398527
   8 C :    0.341205
   9 C :   -0.288947
  10 C :   -0.272512
  11 C :    0.151883
  12 C :   -0.257489
  13 O :   -0.180553
  14 C :   -0.333336
  15 C :    0.295717
  16 O :   -0.384540
  17 O :   -0.333615
  18 H :    0.166392
  19 H :    0.170600
  20 H :    0.159078
  21 H :    0.155886
  22 H :    0.141837
  23 H :    0.154727
  24 H :    0.146904
  25 H :    0.142136
  26 H :    0.140724
  27 H :    0.152932
  28 H :    0.156059
  29 H :    0.152824
  30 H :    0.330988
Sum of atomic charges:    0.0000000

LOEWDIN ATOMIC CHARGES
----------------------
   0 C :   -0.382270
   1 C :   -0.143448
   2 H :    0.188573
   3 C :   -0.079381
   4 C :   -0.138944
   5 C :   -0.141373
   6 C :   -0.048165
   7 C :   -0.119163
   8 C :    0.190319
   9 C :   -0.160900
  10 C :   -0.132239
  11 C :   -0.064876
  12 C :   -0.124710
  13 O :   -0.682298
  14 C :   -0.055870
  15 C :    0.352873
  16 O :   -0.416679
  17 O :   -0.402729
  18 H :    0.169169
  19 H :    0.162499
  20 H :    0.160812
  21 H :    0.177458
  22 H :    0.171932
  23 H :    0.184291
  24 H :    0.175903
  25 H :    0.171320
  26 H :    0.176467
  27 H :    0.164234
  28 H :    0.181085
  29 H :    0.164240
  30 H :    0.301867

  Mayer bond orders larger than 0.100000
B(  0-C ,  1-C ) :   0.8589 B(  0-C , 18-H ) :   0.9633 B(  0-C , 19-H ) :   0.9867
B(  0-C , 20-H ) :   0.9709 B(  1-C ,  2-H ) :   0.9901 B(  1-C ,  3-C ) :   0.7893
B(  1-C , 15-C ) :   0.9854 B(  3-C ,  4-C ) :   1.2595 B(  3-C , 12-C ) :   1.4955
B(  4-C ,  5-C ) :   1.4882 B(  4-C , 21-H ) :   0.9413 B(  5-C ,  6-C ) :   1.1740
B(  5-C , 22-H ) :   0.9575 B(  6-C ,  7-C ) :   1.1457 B(  6-C , 11-C ) :   1.4824
B(  7-C ,  8-C ) :   1.4996 B(  7-C , 23-H ) :   0.9443 B(  8-C ,  9-C ) :   1.2427
B(  8-C , 13-O ) :   1.0540 B(  9-C , 10-C ) :   1.4720 B(  9-C , 24-H ) :   0.9180
B( 10-C , 11-C ) :   1.2233 B( 10-C , 25-H ) :   0.9538 B( 11-C , 12-C ) :   1.2079
B( 12-C , 26-H ) :   0.9413 B( 13-O , 14-C ) :   0.8518 B( 14-C , 27-H ) :   0.9640
B( 14-C , 28-H ) :   0.9678 B( 14-C , 29-H ) :   0.9642 B( 15-C , 16-O ) :   1.9293
B( 15-C , 17-O ) :   1.0380 B( 17-O , 30-H ) :   0.8588

Dispersion correction           -0.013084234
FINAL SINGLE POINT ENERGY      -767.443895782428

DIPOLE MOMENT
-------------

Method             : SCF
Type of density    : Electron Density
Multiplicity       :   1
Irrep              :   0
Energy             :  -767.4444778340523499 Eh
Relativity type    :
Basis              : AO
                                X                 Y                 Z
Electronic contribution:     -3.484202635      -5.654349123       1.922155867
Nuclear contribution   :      4.267798847       6.788511437      -1.649489053
                        -----------------------------------------
Total Dipole Moment    :      0.783596213       1.134162314       0.272666814
                        -----------------------------------------
Magnitude (a.u.)       :      1.405238190
Magnitude (Debye)      :      3.571831622

Rotational constants in cm-1:             0.043806             0.007102             0.006696
Rotational constants in MHz :          1313.272093           212.904477           200.755475

                             ****ORCA TERMINATED NORMALLY****
TOTAL RUN TIME: 0 days 0 hours 1 minutes 26 seconds 786 msec
