                         Program Version 6.0.0  -   RELEASE  -
|  1> ! r2scan-3c def2/J RI DEFGRID2 scfconv6 printgap
|  2> %output
|  3>     printlevel normal
|  4> end
|  5> %cpcm
|  6>     smd true
|  7>     smdsolvent "water"
|  8> end
|  9> * xyz 0 1
| 10> C -3.4941437381 1.7060082304 -0.933779993
| 11> C -3.152792524 0.2417764789 -0.6715374345
| 12> H -3.5915871254 -0.3908230759 -1.4487886669
| 13> C -1.6663371689 -0.0557587142 -0.5994133546
| 14> C -1.2298201035 -1.3536466428 -0.9399684775
| 15> C 0.0893977346 -1.6946264739 -0.870493643
| 16> C 1.0575269275 -0.7539562291 -0.4544720102
| 17> C 2.4232711263 -1.0677983372 -0.375737738
| 18> C 3.3454971241 -0.1303996639 0.0367607416
| 19> C 2.9138455208 1.1648947692 0.3854928456
| 20> C 1.5869612398 1.488375272 0.3159125248
| 21> C 0.6229137816 0.5505590978 -0.1016736798
| 22> C -0.7489316526 0.8683788803 -0.1750377368
| 23> O 4.6470405317 -0.5414351323 0.077420045
| 24> C 5.6432920446 0.3744771761 0.4915248628
| 25> C -3.6923769669 -0.2490834284 0.6570156992
| 26> O -4.1664384608 -1.3540795886 0.8257611628
| 27> O -3.5465991059 0.620733304 1.6389777959
| 28> H -3.2378484472 2.3245631928 -0.0794566555
| 29> H -2.9505984575 2.0558495275 -1.806855875
| 30> H -4.5605063819 1.8055180766 -1.1205297334
| 31> H -1.9642977009 -2.0825412385 -1.2512792091
| 32> H 0.4123986297 -2.6909225708 -1.1333838998
| 33> H 2.7668886385 -2.0560332577 -0.6400436019
| 34> H 3.6255051426 1.9073698598 0.7083246778
| 35> H 1.2628977852 2.4827587845 0.5844064361
| 36> H -1.0551830055 1.8619996183 0.1107982371
| 37> H 5.6935812502 1.2356371843 -0.1797858968
| 38> H 6.5772750791 -0.1808325723 0.4419713366
| 39> H 5.4714649241 0.7103066448 1.5174323968
| 40> H -3.8525188743 0.2731788144 2.4988567265
| 41> *
| 42>
| 43>                          ****END OF INPUT****

CARTESIAN COORDINATES (ANGSTROEM)
---------------------------------
  C     -3.494144    1.706008   -0.933780
  C     -3.152793    0.241776   -0.671537
  H     -3.591587   -0.390823   -1.448789
  C     -1.666337   -0.055759   -0.599413
  C     -1.229820   -1.353647   -0.939968
  C      0.089398   -1.694626   -0.870494
  C      1.057527   -0.753956   -0.454472
  C      2.423271   -1.067798   -0.375738
  C      3.345497   -0.130400    0.036761
  C      2.913846    1.164895    0.385493
  C      1.586961    1.488375    0.315913
  C      0.622914    0.550559   -0.101674
  C     -0.748932    0.868379   -0.175038
  O      4.647041   -0.541435    0.077420
  C      5.643292    0.374477    0.491525
  C     -3.692377   -0.249083    0.657016
  O     -4.166438   -1.354080    0.825761
  O     -3.546599    0.620733    1.638978
  H     -3.237848    2.324563   -0.079457
  H     -2.950598    2.055850   -1.806856
  H     -4.560506    1.805518   -1.120530
  H     -1.964298   -2.082541   -1.251279
  H      0.412399   -2.690923   -1.133384
  H      2.766889   -2.056033   -0.640044
  H      3.625505    1.907370    0.708325
  H      1.262898    2.482759    0.584406
  H     -1.055183    1.862000    0.110798
  H      5.693581    1.235637   -0.179786
  H      6.577275   -0.180833    0.441971
  H      5.471465    0.710307    1.517432
  H     -3.852519    0.273179    2.498857

 Total Charge           Charge          ....    0
 Multiplicity           Mult            ....    1
 Number of Electrons    NEL             ....  122
 Basis Dimension        Dim             ....  408

ORBITAL ENERGIES
----------------

  NO   OCC          E(Eh)            E(eV)
   0   2.0000     -19.003805      -517.1198
   1   2.0000     -18.988782      -516.7110
   2   2.0000     -18.945420      -515.5311
   3   2.0000     -10.170144      -276.7437
   4   2.0000     -10.099602      -274.8241
   5   2.0000     -10.073263      -274.1074
   6   2.0000     -10.055837      -273.6332
   7   2.0000     -10.048766      -273.4408
   8   2.0000     -10.048592      -273.4361
   9   2.0000     -10.044465      -273.3238
  10   2.0000     -10.039996      -273.2022
  11   2.0000     -10.038063      -273.1496
  12   2.0000     -10.035466      -273.0789
  13   2.0000     -10.035284      -273.0740
  14   2.0000     -10.034798      -273.0607
  15   2.0000     -10.030955      -272.9562
  16   2.0000     -10.020346      -272.6675
  17   2.0000      -1.082093       -29.4452
  18   2.0000      -1.035089       -28.1662
  19   2.0000      -0.988108       -26.8878
  20   2.0000      -0.851418       -23.1683
  21   2.0000      -0.808501       -22.0004
  22   2.0000      -0.766195       -20.8492
  23   2.0000      -0.745867       -20.2961
  24   2.0000      -0.709331       -19.3019
  25   2.0000      -0.699970       -19.0471
  26   2.0000      -0.654453       -17.8086
  27   2.0000      -0.637299       -17.3418
  28   2.0000      -0.607184       -16.5223
  29   2.0000      -0.583829       -15.8868
  30   2.0000      -0.571396       -15.5485
  31   2.0000      -0.551853       -15.0167
  32   2.0000      -0.500635       -13.6230
  33   2.0000      -0.486399       -13.2356
  34   2.0000      -0.480325       -13.0703
  35   2.0000      -0.461956       -12.5705
  36   2.0000      -0.452021       -12.3001
  37   2.0000      -0.438915       -11.9435
  38   2.0000      -0.433960       -11.8087
  39   2.0000      -0.433106       -11.7854
  40   2.0000      -0.414230       -11.2718
  41   2.0000      -0.409357       -11.1392
  42   2.0000      -0.396230       -10.7820
  43   2.0000      -0.387168       -10.5354
  44   2.0000      -0.380572       -10.3559
  45   2.0000      -0.373942       -10.1755
  46   2.0000      -0.370788       -10.0897
  47   2.0000      -0.359268        -9.7762
  48   2.0000      -0.348693        -9.4884
  49   2.0000      -0.344709        -9.3800
  50   2.0000      -0.330123        -8.9831
  51   2.0000      -0.324910        -8.8412
  52   2.0000      -0.312154        -8.4942
  53   2.0000      -0.307784        -8.3752
  54   2.0000      -0.300464        -8.1760
  55   2.0000      -0.292198        -7.9511
  56   2.0000      -0.285700        -7.7743
  57   2.0000      -0.266480        -7.2513
  58   2.0000      -0.247627        -6.7383
  59   2.0000      -0.224696        -6.1143
  60   2.0000      -0.192453        -5.2369
  61   0.0000      -0.070348        -1.9143
  62   0.0000      -0.043301        -1.1783
  63   0.0000      -0.013703        -0.3729
  64   0.0000      -0.004660        -0.1268
  65   0.0000       0.063105         1.7172

MULLIKEN ATOMIC CHARGES
-----------------------
   0 C :   -0.556791
   1 C :   -0.057846
   2 H :    0.208028
   3 C :    0.168784
   4 C :   -0.267522
   5 C :   -0.317344
   6 C :    0.204367
   7 C :   -0.425600
   8 C :    0.337669
   9 C :   -0.282993
  10 C :   -0.297791
  11 C :    0.091693
  12 C :   -0.253846
  13 O :   -0.222350
  14 C :   -0.341954
  15 C :    0.318631
  16 O :   -0.469992
  17 O :   -0.356443
  18 H :    0.176694
  19 H :    0.182321
  20 H :    0.177636
  21 H :    0.181566
  22 H :    0.175138
  23 H :    0.183832
  24 H :    0.185462
  25 H :    0.178450
  26 H :    0.180143
  27 H :    0.172653
  28 H :    0.173880
  29 H :    0.172526
  30 H :    0.381000
Sum of atomic charges:    0.0000000

LOEWDIN ATOMIC CHARGES
----------------------
   0 C :   -0.382294
   1 C :   -0.140781
   2 H :    0.196617
   3 C :   -0.085524
   4 C :   -0.150875
   5 C :   -0.151149
   6 C :   -0.062958
   7 C :   -0.134309
   8 C :    0.181508
   9 C :   -0.156100
  10 C :   -0.135195
  11 C :   -0.078651
  12 C :   -0.128762
  13 O :   -0.707312
  14 C :   -0.051359
  15 C :    0.363129
  16 O :   -0.479881
  17 O :   -0.390106
  18 H :    0.172204
  19 H :    0.167051
  20 H :    0.167013
  21 H :    0.185149
  22 H :    0.183560
  23 H :    0.193323
  24 H :    0.191528
  25 H :    0.185324
  26 H :    0.189543
  27 H :    0.174399
  28 H :    0.187716
  29 H :    0.174397
  30 H :    0.322795

  Mayer bond orders larger than 0.100000
B(  0-C ,  1-C ) :   0.8447 B(  0-C , 18-H ) :   0.9604 B(  0-C , 19-H ) :   0.9832
B(  0-C , 20-H ) :   0.9665 B(  1-C ,  2-H ) :   0.9824 B(  1-C ,  3-C ) :   0.7833
B(  1-C , 15-C ) :   0.9837 B(  3-C ,  4-C ) :   1.2187 B(  3-C , 12-C ) :   1.4675
B(  4-C ,  5-C ) :   1.4616 B(  4-C , 21-H ) :   0.9564 B(  5-C ,  6-C ) :   1.1699
B(  5-C , 22-H ) :   0.9717 B(  6-C ,  7-C ) :   1.1788 B(  6-C , 11-C ) :   1.3901
B(  7-C ,  8-C ) :   1.4419 B(  7-C , 23-H ) :   0.9502 B(  8-C ,  9-C ) :   1.2258
B(  8-C , 13-O ) :   1.0387 B(  9-C , 10-C ) :   1.4465 B(  9-C , 24-H ) :   0.9302
B( 10-C , 11-C ) :   1.2198 B( 10-C , 25-H ) :   0.9706 B( 11-C , 12-C ) :   1.2383
B( 12-C , 26-H ) :   0.9416 B( 13-O , 14-C ) :   0.8434 B( 14-C , 27-H ) :   0.9560
B( 14-C , 28-H ) :   0.9602 B( 14-C , 29-H ) :   0.9563 B( 15-C , 16-O ) :   1.8576
B( 15-C , 17-O ) :   1.0772 B( 17-O , 30-H ) :   0.8342

Dispersion correction           -0.013084234
FINAL SINGLE POINT ENERGY      -767.459826439157

DIPOLE MOMENT
-------------

Method             : SCF
Type of density    : Electron Density
Multiplicity       :   1
Irrep              :   0
Energy             :  -767.4604084907815604 Eh
Relativity type    :
Basis              : AO
                                X                 Y                 Z
Electronic contribution:     -3.305873605      -5.028087613       2.049718860
Nuclear contribution   :      4.267798847       6.788511437      -1.649489053
                        -----------------------------------------
Total Dipole Moment    :      0.961925242       1.760423824       0.400229806
                        -----------------------------------------
Magnitude (a.u.)       :      2.045623648
Magnitude (Debye)      :      5.199562098

Rotational constants in cm-1:             0.043806             0.007102             0.006696
Rotational constants in MHz :          1313.272093           212.904477           200.755475

                             ****ORCA TERMINATED NORMALLY****
TOTAL RUN TIME: 0 days 0 hours 1 minutes 47 seconds 927 msec
