                         Program Version 6.0.0  -   RELEASE  -
|  1> ! r2scan-3c def2/J RI DEFGRID2 scfconv6 printgap
|  2> %output
|  3>     printlevel normal
|  4> end
|  5> * xyz 0 1
|  6> C -3.5986943645 -0.7018065583 0.162305941
|  7> C -2.2556395396 -0.0608934401 0.486507844
|  8> C -1.1812847695 -0.4724714824 -0.5209952202
|  9> C 0.1105481065 0.2679964434 -0.2938680099
| 10> O 0.1971769202 1.4218565053 0.0704300272
| 11> O 1.1618772362 -0.4971762759 -0.5658803981
| 12> C 2.476436751 0.0650043825 -0.4115069326
| 13> C 2.9579166321 -0.0517146218 1.0266104933
| 14> H -3.9429938992 -0.3902159798 -0.8205663822
| 15> H -3.5149703941 -1.7855813438 0.1716233238
| 16> H -4.3427016941 -0.406972002 0.8970675029
| 17> H -1.9388917916 -0.3556976053 1.4888303619
| 18> H -2.34478315 1.026995524 0.4765725254
| 19> H -1.5182951542 -0.2237807305 -1.5306513691
| 20> H -0.9821333543 -1.543009531 -0.4820882862
| 21> H 3.1032733082 -0.514983594 -1.0892742334
| 22> H 2.446185452 1.1134956296 -0.7230567534
| 23> H 2.3221293241 0.5410101256 1.6806026029
| 24> H 2.9281736449 -1.0892631156 1.3481738307
| 25> H 3.9760514882 0.3169471573 1.096230198
| 26> *
| 27>
| 28>                          ****END OF INPUT****

CARTESIAN COORDINATES (ANGSTROEM)
---------------------------------
  C     -3.598694   -0.701807    0.162306
  C     -2.255640   -0.060893    0.486508
  C     -1.181285   -0.472471   -0.520995
  C      0.110548    0.267996   -0.293868
  O      0.197177    1.421857    0.070430
  O      1.161877   -0.497176   -0.565880
  C      2.476437    0.065004   -0.411507
  C      2.957917   -0.051715    1.026610
  H     -3.942994   -0.390216   -0.820566
  H     -3.514970   -1.785581    0.171623
  H     -4.342702   -0.406972    0.897068
  H     -1.938892   -0.355698    1.488830
  H     -2.344783    1.026996    0.476573
  H     -1.518295   -0.223781   -1.530651
  H     -0.982133   -1.543010   -0.482088
  H      3.103273   -0.514984   -1.089274
  H      2.446185    1.113496   -0.723057
  H      2.322129    0.541010    1.680603
  H      2.928174   -1.089263    1.348174
  H      3.976051    0.316947    1.096230

 Total Charge           Charge          ....    0
 Multiplicity           Mult            ....    1
 Number of Electrons    NEL             ....   64
 Basis Dimension        Dim             ....  222

ORBITAL ENERGIES
----------------

  NO   OCC          E(Eh)            E(eV)
   0   2.0000     -18.995632      -516.8974
   1   2.0000     -18.927622      -515.0468
   2   2.0000     -10.151389      -276.2333
   3   2.0000     -10.090442      -274.5749
   4   2.0000     -10.040927      -273.2275
   5   2.0000     -10.030829      -272.9527
   6   2.0000     -10.028009      -272.8760
   7   2.0000     -10.020155      -272.6623
   8   2.0000      -1.070298       -29.1243
   9   2.0000      -0.975161       -26.5355
  10   2.0000      -0.771247       -20.9867
  11   2.0000      -0.739680       -20.1277
  12   2.0000      -0.680102       -18.5065
  13   2.0000      -0.622133       -16.9291
  14   2.0000      -0.563990       -15.3470
  15   2.0000      -0.518789       -14.1170
  16   2.0000      -0.473155       -12.8752
  17   2.0000      -0.452464       -12.3122
  18   2.0000      -0.447657       -12.1814
  19   2.0000      -0.418278       -11.3819
  20   2.0000      -0.411349       -11.1934
  21   2.0000      -0.390875       -10.6362
  22   2.0000      -0.371470       -10.1082
  23   2.0000      -0.366462        -9.9719
  24   2.0000      -0.351601        -9.5675
  25   2.0000      -0.340222        -9.2579
  26   2.0000      -0.322339        -8.7713
  27   2.0000      -0.311285        -8.4705
  28   2.0000      -0.306100        -8.3294
  29   2.0000      -0.301123        -8.1940
  30   2.0000      -0.270973        -7.3735
  31   2.0000      -0.235853        -6.4179
  32   0.0000      -0.013550        -0.3687
  33   0.0000       0.079497         2.1632
  34   0.0000       0.091974         2.5027
  35   0.0000       0.104518         2.8441
  36   0.0000       0.124899         3.3987

MULLIKEN ATOMIC CHARGES
-----------------------
   0 C :   -0.468525
   1 C :   -0.230400
   2 C :   -0.338751
   3 C :    0.402059
   4 O :   -0.435573
   5 O :   -0.180810
   6 C :   -0.136183
   7 C :   -0.471227
   8 H :    0.143746
   9 H :    0.140524
  10 H :    0.150070
  11 H :    0.137969
  12 H :    0.167607
  13 H :    0.167887
  14 H :    0.165745
  15 H :    0.147679
  16 H :    0.166357
  17 H :    0.174055
  18 H :    0.151177
  19 H :    0.146594
Sum of atomic charges:   -0.0000000

LOEWDIN ATOMIC CHARGES
----------------------
   0 C :   -0.421604
   1 C :   -0.294196
   2 C :   -0.230946
   3 C :    0.362793
   4 O :   -0.439359
   5 O :   -0.596301
   6 C :    0.026732
   7 C :   -0.390701
   8 H :    0.150077
   9 H :    0.149677
  10 H :    0.152679
  11 H :    0.155999
  12 H :    0.168304
  13 H :    0.182089
  14 H :    0.178277
  15 H :    0.177534
  16 H :    0.187262
  17 H :    0.165865
  18 H :    0.156860
  19 H :    0.158958

  Mayer bond orders larger than 0.100000
B(  0-C ,  1-C ) :   0.8850 B(  0-C ,  8-H ) :   0.9887 B(  0-C ,  9-H ) :   0.9782
B(  0-C , 10-H ) :   0.9750 B(  1-C ,  2-C ) :   0.9332 B(  1-C , 11-H ) :   0.9602
B(  1-C , 12-H ) :   0.9649 B(  2-C ,  3-C ) :   0.9794 B(  2-C , 13-H ) :   0.9463
B(  2-C , 14-H ) :   0.9767 B(  3-C ,  4-O ) :   1.8201 B(  3-C ,  5-O ) :   1.0644
B(  5-O ,  6-C ) :   0.8182 B(  6-C ,  7-C ) :   0.9368 B(  6-C , 15-H ) :   0.9610
B(  6-C , 16-H ) :   0.9674 B(  7-C , 17-H ) :   0.9719 B(  7-C , 18-H ) :   0.9736
B(  7-C , 19-H ) :   0.9650

Dispersion correction           -0.004919352
FINAL SINGLE POINT ENERGY      -386.236399497224

DIPOLE MOMENT
-------------

Method             : SCF
Type of density    : Electron Density
Multiplicity       :   1
Irrep              :   0
Energy             :  -386.2432059974173626 Eh
Relativity type    :
Basis              : AO
                                X                 Y                 Z
Electronic contribution:      3.788660941       2.445170692      -2.472761728
Nuclear contribution   :     -3.553283601      -3.092610663       2.350700966
                        -----------------------------------------
Total Dipole Moment    :      0.235377340      -0.647439971      -0.122060762
                        -----------------------------------------
Magnitude (a.u.)       :      0.699628357
Magnitude (Debye)      :      1.778313958

Rotational constants in cm-1:             0.180172             0.028886             0.028172
Rotational constants in MHz :          5401.432107           865.992650           844.571935

                             ****ORCA TERMINATED NORMALLY****
TOTAL RUN TIME: 0 days 0 hours 0 minutes 31 seconds 832 msec
