                         Program Version 6.0.0  -   RELEASE  -
|  1> ! r2scan-3c def2/J RI DEFGRID2 scfconv6 printgap
|  2> %output
|  3>     printlevel normal
|  4> end
|  5> %cpcm
|  6>     smd true
|  7>     smdsolvent "water"
|  8> end
|  9> * xyz 0 1
| 10> C -3.5986943645 -0.7018065583 0.162305941
| 11> C -2.2556395396 -0.0608934401 0.486507844
| 12> C -1.1812847695 -0.4724714824 -0.5209952202
| 13> C 0.1105481065 0.2679964434 -0.2938680099
| 14> O 0.1971769202 1.4218565053 0.0704300272
| 15> O 1.1618772362 -0.4971762759 -0.5658803981
| 16> C 2.476436751 0.0650043825 -0.4115069326
| 17> C 2.9579166321 -0.0517146218 1.0266104933
| 18> H -3.9429938992 -0.3902159798 -0.8205663822
| 19> H -3.5149703941 -1.7855813438 0.1716233238
| 20> H -4.3427016941 -0.406972002 0.8970675029
| 21> H -1.9388917916 -0.3556976053 1.4888303619
| 22> H -2.34478315 1.026995524 0.4765725254
| 23> H -1.5182951542 -0.2237807305 -1.5306513691
| 24> H -0.9821333543 -1.543009531 -0.4820882862
| 25> H 3.1032733082 -0.514983594 -1.0892742334
| 26> H 2.446185452 1.1134956296 -0.7230567534
| 27> H 2.3221293241 0.5410101256 1.6806026029
| 28> H 2.9281736449 -1.0892631156 1.3481738307
| 29> H 3.9760514882 0.3169471573 1.096230198
| 30> *
| 31>
| 32>                          ****END OF INPUT****

CARTESIAN COORDINATES (ANGSTROEM)
---------------------------------
  C     -3.598694   -0.701807    0.162306
  C     -2.255640   -0.060893    0.486508
  C     -1.181285   -0.472471   -0.520995
  C      0.110548    0.267996   -0.293868
  O      0.197177    1.421857    0.070430
  O      1.161877   -0.497176   -0.565880
  C      2.476437    0.065004   -0.411507
  C      2.957917   -0.051715    1.026610
  H     -3.942994   -0.390216   -0.820566
  H     -3.514970   -1.785581    0.171623
  H     -4.342702   -0.406972    0.897068
  H     -1.938892   -0.355698    1.488830
  H     -2.344783    1.026996    0.476573
  H     -1.518295   -0.223781   -1.530651
  H     -0.982133   -1.543010   -0.482088
  H      3.103273   -0.514984   -1.089274
  H      2.446185    1.113496   -0.723057
  H      2.322129    0.541010    1.680603
  H      2.928174   -1.089263    1.348174
  H      3.976051    0.316947    1.096230

 Total Charge           Charge          ....    0
 Multiplicity           Mult            ....    1
 Number of Electrons    NEL             ....   64
 Basis Dimension        Dim             ....  222

ORBITAL ENERGIES
----------------

  NO   OCC          E(Eh)            E(eV)
   0   2.0000     -19.001726      -517.0633
   1   2.0000     -18.943308      -515.4736
   2   2.0000     -10.162079      -276.5242
   3   2.0000     -10.083003      -274.3725
   4   2.0000     -10.035030      -273.0670
   5   2.0000     -10.025642      -272.8116
   6   2.0000     -10.018122      -272.6070
   7   2.0000     -10.010909      -272.4107
   8   2.0000      -1.078020       -29.3344
   9   2.0000      -0.988731       -26.9048
  10   2.0000      -0.766923       -20.8690
  11   2.0000      -0.733417       -19.9573
  12   2.0000      -0.674222       -18.3465
  13   2.0000      -0.617208       -16.7951
  14   2.0000      -0.557968       -15.1831
  15   2.0000      -0.517390       -14.0789
  16   2.0000      -0.473612       -12.8876
  17   2.0000      -0.456731       -12.4283
  18   2.0000      -0.450915       -12.2700
  19   2.0000      -0.419308       -11.4099
  20   2.0000      -0.408131       -11.1058
  21   2.0000      -0.384406       -10.4602
  22   2.0000      -0.367459        -9.9991
  23   2.0000      -0.359623        -9.7859
  24   2.0000      -0.347723        -9.4620
  25   2.0000      -0.338176        -9.2022
  26   2.0000      -0.317126        -8.6294
  27   2.0000      -0.306044        -8.3279
  28   2.0000      -0.303646        -8.2626
  29   2.0000      -0.295468        -8.0401
  30   2.0000      -0.278375        -7.5750
  31   2.0000      -0.251739        -6.8502
  32   0.0000      -0.021568        -0.5869
  33   0.0000       0.081495         2.2176
  34   0.0000       0.098463         2.6793
  35   0.0000       0.113812         3.0970
  36   0.0000       0.133475         3.6321

MULLIKEN ATOMIC CHARGES
-----------------------
   0 C :   -0.514673
   1 C :   -0.234562
   2 C :   -0.353085
   3 C :    0.443473
   4 O :   -0.518038
   5 O :   -0.201362
   6 C :   -0.142606
   7 C :   -0.495516
   8 H :    0.158337
   9 H :    0.155894
  10 H :    0.160296
  11 H :    0.155754
  12 H :    0.155710
  13 H :    0.199289
  14 H :    0.182037
  15 H :    0.173562
  16 H :    0.171098
  17 H :    0.168853
  18 H :    0.165426
  19 H :    0.170113
Sum of atomic charges:   -0.0000000

LOEWDIN ATOMIC CHARGES
----------------------
   0 C :   -0.426600
   1 C :   -0.295434
   2 C :   -0.227887
   3 C :    0.373389
   4 O :   -0.498382
   5 O :   -0.599769
   6 C :    0.031192
   7 C :   -0.393437
   8 H :    0.154243
   9 H :    0.154497
  10 H :    0.155213
  11 H :    0.160133
  12 H :    0.162993
  13 H :    0.193790
  14 H :    0.186342
  15 H :    0.188844
  16 H :    0.188739
  17 H :    0.162594
  18 H :    0.161907
  19 H :    0.167632

  Mayer bond orders larger than 0.100000
B(  0-C ,  1-C ) :   0.8849 B(  0-C ,  8-H ) :   0.9851 B(  0-C ,  9-H ) :   0.9763
B(  0-C , 10-H ) :   0.9719 B(  1-C ,  2-C ) :   0.9191 B(  1-C , 11-H ) :   0.9611
B(  1-C , 12-H ) :   0.9652 B(  2-C ,  3-C ) :   0.9840 B(  2-C , 13-H ) :   0.9333
B(  2-C , 14-H ) :   0.9680 B(  3-C ,  4-O ) :   1.7583 B(  3-C ,  5-O ) :   1.0867
B(  5-O ,  6-C ) :   0.7995 B(  6-C ,  7-C ) :   0.9356 B(  6-C , 15-H ) :   0.9515
B(  6-C , 16-H ) :   0.9635 B(  7-C , 17-H ) :   0.9700 B(  7-C , 18-H ) :   0.9696
B(  7-C , 19-H ) :   0.9600

Dispersion correction           -0.004919352
FINAL SINGLE POINT ENERGY      -386.241155765801

DIPOLE MOMENT
-------------

Method             : SCF
Type of density    : Electron Density
Multiplicity       :   1
Irrep              :   0
Energy             :  -386.2479622659940901 Eh
Relativity type    :
Basis              : AO
                                X                 Y                 Z
Electronic contribution:      3.870137791       2.103546945      -2.595698139
Nuclear contribution   :     -3.553283601      -3.092610663       2.350700966
                        -----------------------------------------
Total Dipole Moment    :      0.316854190      -0.989063718      -0.244997173
                        -----------------------------------------
Magnitude (a.u.)       :      1.067083516
Magnitude (Debye)      :      2.712310748

Rotational constants in cm-1:             0.180172             0.028886             0.028172
Rotational constants in MHz :          5401.432107           865.992650           844.571935

                             ****ORCA TERMINATED NORMALLY****
TOTAL RUN TIME: 0 days 0 hours 0 minutes 38 seconds 25 msec
