                         Program Version 6.0.1  -  RELEASE   -
|  1> ! r2scan-3c def2/J RI DEFGRID2 scfconv6 printgap
|  2> %output
|  3>     printlevel normal
|  4> end
|  5> * xyz 0 1
|  6> C -3.7757916126 0.5563045368 -1.7582819509
|  7> C -3.2848748301 -0.4466076826 -0.7128182681
|  8> H -3.5528888681 -1.4633356477 -1.0124918123
|  9> C -1.7845275853 -0.3775586843 -0.5308954218
| 10> C -0.9853738496 -1.4823805899 -0.7959621789
| 11> C 0.3859062518 -1.4183791032 -0.6396757232
| 12> C 1.0176895979 -0.2513860431 -0.2132816795
| 13> C 0.1919477476 0.8364989052 0.0513486769
| 14> C -1.1786758165 0.7938079179 -0.0947003898
| 15> F 0.7362094917 2.0031164832 0.5090207337
| 16> C 2.4788512711 -0.1951487261 -0.0496077406
| 17> C 3.213579104 0.8881850337 -0.5240136182
| 18> C 4.5878644645 0.9208176182 -0.3723750908
| 19> C 5.2453473689 -0.1231097142 0.2565790232
| 20> C 4.5216730239 -1.2044241398 0.7323009706
| 21> C 3.1485294724 -1.2432417357 0.5781960867
| 22> C -3.9102330095 -0.2137749137 0.6491161978
| 23> O -4.2172418857 -1.1131477508 1.4035397361
| 24> O -4.0612680987 1.0590084764 0.9578211733
| 25> H -3.5525815356 1.5733386071 -1.4522148069
| 26> H -3.283768295 0.3574507701 -2.7060539877
| 27> H -4.8499494294 0.460122434 -1.8917781913
| 28> H -1.4394534176 -2.4019024272 -1.1306059092
| 29> H 0.991865657 -2.2816000269 -0.8657153725
| 30> H -1.7575984448 1.6720914395 0.1426371894
| 31> H 2.7089706418 1.70180834 -1.0234071619
| 32> H 5.1465707266 1.7649439591 -0.7475335524
| 33> H 6.3175789215 -0.0936123035 0.3765464856
| 34> H 5.0288862324 -2.0191883045 1.226605807
| 35> H 2.5841687712 -2.07915734 0.9636806302
| 36> H -4.4481011588 1.1893559395 1.8454828019
| 37> *
| 38>
| 39>                          ****END OF INPUT****

CARTESIAN COORDINATES (ANGSTROEM)
---------------------------------
  C     -3.775792    0.556305   -1.758282
  C     -3.284875   -0.446608   -0.712818
  H     -3.552889   -1.463336   -1.012492
  C     -1.784528   -0.377559   -0.530895
  C     -0.985374   -1.482381   -0.795962
  C      0.385906   -1.418379   -0.639676
  C      1.017690   -0.251386   -0.213282
  C      0.191948    0.836499    0.051349
  C     -1.178676    0.793808   -0.094700
  F      0.736209    2.003116    0.509021
  C      2.478851   -0.195149   -0.049608
  C      3.213579    0.888185   -0.524014
  C      4.587864    0.920818   -0.372375
  C      5.245347   -0.123110    0.256579
  C      4.521673   -1.204424    0.732301
  C      3.148529   -1.243242    0.578196
  C     -3.910233   -0.213775    0.649116
  O     -4.217242   -1.113148    1.403540
  O     -4.061268    1.059008    0.957821
  H     -3.552582    1.573339   -1.452215
  H     -3.283768    0.357451   -2.706054
  H     -4.849949    0.460122   -1.891778
  H     -1.439453   -2.401902   -1.130606
  H      0.991866   -2.281600   -0.865715
  H     -1.757598    1.672091    0.142637
  H      2.708971    1.701808   -1.023407
  H      5.146571    1.764944   -0.747534
  H      6.317579   -0.093612    0.376546
  H      5.028886   -2.019188    1.226606
  H      2.584169   -2.079157    0.963681
  H     -4.448101    1.189356    1.845483

 Total Charge           Charge          ....    0
 Multiplicity           Mult            ....    1
 Number of Electrons    NEL             ....  128
 Basis Dimension        Dim             ....  422

ORBITAL ENERGIES
----------------

  NO   OCC          E(Eh)            E(eV)
   0   2.0000     -24.497787      -666.6187
   1   2.0000     -19.014397      -517.4080
   2   2.0000     -18.937880      -515.3259
   3   2.0000     -10.167557      -276.6733
   4   2.0000     -10.125750      -275.5357
   5   2.0000     -10.067895      -273.9614
   6   2.0000     -10.063265      -273.8353
   7   2.0000     -10.058214      -273.6979
   8   2.0000     -10.052895      -273.5532
   9   2.0000     -10.049108      -273.4501
  10   2.0000     -10.046508      -273.3794
  11   2.0000     -10.043479      -273.2969
  12   2.0000     -10.039679      -273.1936
  13   2.0000     -10.038783      -273.1692
  14   2.0000     -10.038356      -273.1576
  15   2.0000     -10.038000      -273.1479
  16   2.0000     -10.037650      -273.1383
  17   2.0000     -10.036837      -273.1162
  18   2.0000      -1.181197       -32.1420
  19   2.0000      -1.088434       -29.6178
  20   2.0000      -0.984537       -26.7906
  21   2.0000      -0.854905       -23.2632
  22   2.0000      -0.832070       -22.6418
  23   2.0000      -0.791498       -21.5378
  24   2.0000      -0.745537       -20.2871
  25   2.0000      -0.728498       -19.8234
  26   2.0000      -0.720586       -19.6081
  27   2.0000      -0.695948       -18.9377
  28   2.0000      -0.648796       -17.6546
  29   2.0000      -0.619255       -16.8508
  30   2.0000      -0.599125       -16.3030
  31   2.0000      -0.581340       -15.8191
  32   2.0000      -0.571793       -15.5593
  33   2.0000      -0.559594       -15.2273
  34   2.0000      -0.514850       -14.0098
  35   2.0000      -0.493014       -13.4156
  36   2.0000      -0.478322       -13.0158
  37   2.0000      -0.463152       -12.6030
  38   2.0000      -0.454551       -12.3690
  39   2.0000      -0.450436       -12.2570
  40   2.0000      -0.439364       -11.9557
  41   2.0000      -0.432430       -11.7670
  42   2.0000      -0.421955       -11.4820
  43   2.0000      -0.415749       -11.3131
  44   2.0000      -0.412075       -11.2131
  45   2.0000      -0.408778       -11.1234
  46   2.0000      -0.393341       -10.7034
  47   2.0000      -0.387570       -10.5463
  48   2.0000      -0.380417       -10.3517
  49   2.0000      -0.364525        -9.9192
  50   2.0000      -0.361896        -9.8477
  51   2.0000      -0.352995        -9.6055
  52   2.0000      -0.346263        -9.4223
  53   2.0000      -0.336444        -9.1551
  54   2.0000      -0.333377        -9.0716
  55   2.0000      -0.327993        -8.9251
  56   2.0000      -0.315861        -8.5950
  57   2.0000      -0.310308        -8.4439
  58   2.0000      -0.295230        -8.0336
  59   2.0000      -0.265559        -7.2262
  60   2.0000      -0.243487        -6.6256
  61   2.0000      -0.241437        -6.5698
  62   2.0000      -0.239776        -6.5246
  63   2.0000      -0.216849        -5.9008
  64   0.0000      -0.064596        -1.7577
  65   0.0000      -0.041141        -1.1195
  66   0.0000      -0.035152        -0.9565
  67   0.0000      -0.027739        -0.7548
  68   0.0000      -0.004072        -0.1108

MULLIKEN ATOMIC CHARGES
-----------------------
   0 C :   -0.494860
   1 C :   -0.025245
   2 H :    0.159459
   3 C :    0.168668
   4 C :   -0.243859
   5 C :   -0.194789
   6 C :    0.058515
   7 C :    0.302732
   8 C :   -0.350223
   9 F :   -0.241351
  10 C :    0.102999
  11 C :   -0.180731
  12 C :   -0.172594
  13 C :   -0.135724
  14 C :   -0.169606
  15 C :   -0.207414
  16 C :    0.283341
  17 O :   -0.376489
  18 O :   -0.333469
  19 H :    0.171027
  20 H :    0.157824
  21 H :    0.154023
  22 H :    0.148115
  23 H :    0.154705
  24 H :    0.183127
  25 H :    0.154873
  26 H :    0.145815
  27 H :    0.146950
  28 H :    0.145942
  29 H :    0.153185
  30 H :    0.335058
Sum of atomic charges:   -0.0000000

LOEWDIN ATOMIC CHARGES
----------------------
   0 C :   -0.371393
   1 C :   -0.142573
   2 H :    0.189016
   3 C :   -0.057505
   4 C :   -0.153989
   5 C :   -0.127037
   6 C :   -0.062388
   7 C :    0.239233
   8 C :   -0.133845
   9 F :   -0.288424
  10 C :   -0.063048
  11 C :   -0.132802
  12 C :   -0.158990
  13 C :   -0.163185
  14 C :   -0.160008
  15 C :   -0.145511
  16 C :    0.352248
  17 O :   -0.409630
  18 O :   -0.405897
  19 H :    0.168808
  20 H :    0.161075
  21 H :    0.160208
  22 H :    0.173329
  23 H :    0.177953
  24 H :    0.195527
  25 H :    0.177511
  26 H :    0.168318
  27 H :    0.167329
  28 H :    0.168119
  29 H :    0.174356
  30 H :    0.303197

  Mayer bond orders larger than 0.100000
B(  0-C ,  1-C ) :   0.9285 B(  0-C , 19-H ) :   0.9634 B(  0-C , 20-H ) :   0.9708
B(  0-C , 21-H ) :   0.9718 B(  1-C ,  2-H ) :   0.9609 B(  1-C ,  3-C ) :   0.8114
B(  1-C , 16-C ) :   0.9773 B(  3-C ,  4-C ) :   1.3999 B(  3-C ,  6-C ) :   0.1075
B(  3-C ,  8-C ) :   1.3499 B(  4-C ,  5-C ) :   1.4370 B(  4-C , 22-H ) :   0.9341
B(  5-C ,  6-C ) :   1.3721 B(  5-C , 23-H ) :   0.9377 B(  6-C ,  7-C ) :   1.4476
B(  6-C , 10-C ) :   0.7831 B(  7-C ,  8-C ) :   1.4182 B(  7-C ,  9-F ) :   0.8989
B(  8-C , 24-H ) :   0.9096 B( 10-C , 11-C ) :   1.4185 B( 10-C , 15-C ) :   1.3935
B( 11-C , 12-C ) :   1.4366 B( 11-C , 25-H ) :   0.9371 B( 12-C , 13-C ) :   1.4125
B( 12-C , 26-H ) :   0.9505 B( 13-C , 14-C ) :   1.4169 B( 13-C , 27-H ) :   0.9462
B( 14-C , 15-C ) :   1.4382 B( 14-C , 28-H ) :   0.9494 B( 15-C , 29-H ) :   0.9412
B( 16-C , 17-O ) :   1.9549 B( 16-C , 18-O ) :   1.0307 B( 18-O , 30-H ) :   0.8567

Dispersion correction           -0.013443976
FINAL SINGLE POINT ENERGY      -829.575761375218

DIPOLE MOMENT
-------------

Method             : SCF
Type of density    : Electron Density
Multiplicity       :   1
Irrep              :   0
Energy             :  -829.5729988242310355 Eh
Relativity type    :
Basis              : AO
                                X                 Y                 Z
Electronic contribution:      0.885845594       3.631707637       5.793372025
Nuclear contribution   :     -0.904423718      -3.376262065      -6.323534192
                        -----------------------------------------
Total Dipole Moment    :     -0.018578124       0.255445572      -0.530162167
                        -----------------------------------------
Magnitude (a.u.)       :      0.588786472
Magnitude (Debye)      :      1.496576278

Rotational constants in cm-1:             0.038591             0.006437             0.006144
Rotational constants in MHz :          1156.914736           192.964953           184.186204

                             ****ORCA TERMINATED NORMALLY****
TOTAL RUN TIME: 0 days 0 hours 1 minutes 2 seconds 125 msec
