                         Program Version 6.0.1  -  RELEASE   -
|  1> ! r2scan-3c def2/J RI DEFGRID2 scfconv6 printgap
|  2> %output
|  3>     printlevel normal
|  4> end
|  5> %cpcm
|  6>     smd true
|  7>     smdsolvent "water"
|  8> end
|  9> * xyz 0 1
| 10> C -3.7757916126 0.5563045368 -1.7582819509
| 11> C -3.2848748301 -0.4466076826 -0.7128182681
| 12> H -3.5528888681 -1.4633356477 -1.0124918123
| 13> C -1.7845275853 -0.3775586843 -0.5308954218
| 14> C -0.9853738496 -1.4823805899 -0.7959621789
| 15> C 0.3859062518 -1.4183791032 -0.6396757232
| 16> C 1.0176895979 -0.2513860431 -0.2132816795
| 17> C 0.1919477476 0.8364989052 0.0513486769
| 18> C -1.1786758165 0.7938079179 -0.0947003898
| 19> F 0.7362094917 2.0031164832 0.5090207337
| 20> C 2.4788512711 -0.1951487261 -0.0496077406
| 21> C 3.213579104 0.8881850337 -0.5240136182
| 22> C 4.5878644645 0.9208176182 -0.3723750908
| 23> C 5.2453473689 -0.1231097142 0.2565790232
| 24> C 4.5216730239 -1.2044241398 0.7323009706
| 25> C 3.1485294724 -1.2432417357 0.5781960867
| 26> C -3.9102330095 -0.2137749137 0.6491161978
| 27> O -4.2172418857 -1.1131477508 1.4035397361
| 28> O -4.0612680987 1.0590084764 0.9578211733
| 29> H -3.5525815356 1.5733386071 -1.4522148069
| 30> H -3.283768295 0.3574507701 -2.7060539877
| 31> H -4.8499494294 0.460122434 -1.8917781913
| 32> H -1.4394534176 -2.4019024272 -1.1306059092
| 33> H 0.991865657 -2.2816000269 -0.8657153725
| 34> H -1.7575984448 1.6720914395 0.1426371894
| 35> H 2.7089706418 1.70180834 -1.0234071619
| 36> H 5.1465707266 1.7649439591 -0.7475335524
| 37> H 6.3175789215 -0.0936123035 0.3765464856
| 38> H 5.0288862324 -2.0191883045 1.226605807
| 39> H 2.5841687712 -2.07915734 0.9636806302
| 40> H -4.4481011588 1.1893559395 1.8454828019
| 41> *
| 42>
| 43>                          ****END OF INPUT****

CARTESIAN COORDINATES (ANGSTROEM)
---------------------------------
  C     -3.775792    0.556305   -1.758282
  C     -3.284875   -0.446608   -0.712818
  H     -3.552889   -1.463336   -1.012492
  C     -1.784528   -0.377559   -0.530895
  C     -0.985374   -1.482381   -0.795962
  C      0.385906   -1.418379   -0.639676
  C      1.017690   -0.251386   -0.213282
  C      0.191948    0.836499    0.051349
  C     -1.178676    0.793808   -0.094700
  F      0.736209    2.003116    0.509021
  C      2.478851   -0.195149   -0.049608
  C      3.213579    0.888185   -0.524014
  C      4.587864    0.920818   -0.372375
  C      5.245347   -0.123110    0.256579
  C      4.521673   -1.204424    0.732301
  C      3.148529   -1.243242    0.578196
  C     -3.910233   -0.213775    0.649116
  O     -4.217242   -1.113148    1.403540
  O     -4.061268    1.059008    0.957821
  H     -3.552582    1.573339   -1.452215
  H     -3.283768    0.357451   -2.706054
  H     -4.849949    0.460122   -1.891778
  H     -1.439453   -2.401902   -1.130606
  H      0.991866   -2.281600   -0.865715
  H     -1.757598    1.672091    0.142637
  H      2.708971    1.701808   -1.023407
  H      5.146571    1.764944   -0.747534
  H      6.317579   -0.093612    0.376546
  H      5.028886   -2.019188    1.226606
  H      2.584169   -2.079157    0.963681
  H     -4.448101    1.189356    1.845483

 Total Charge           Charge          ....    0
 Multiplicity           Mult            ....    1
 Number of Electrons    NEL             ....  128
 Basis Dimension        Dim             ....  422

ORBITAL ENERGIES
----------------

  NO   OCC          E(Eh)            E(eV)
   0   2.0000     -24.502046      -666.7346
   1   2.0000     -19.005212      -517.1581
   2   2.0000     -18.946680      -515.5654
   3   2.0000     -10.171794      -276.7886
   4   2.0000     -10.124934      -275.5135
   5   2.0000     -10.059414      -273.7306
   6   2.0000     -10.058819      -273.7144
   7   2.0000     -10.056548      -273.6526
   8   2.0000     -10.052340      -273.5381
   9   2.0000     -10.043972      -273.3104
  10   2.0000     -10.042457      -273.2692
  11   2.0000     -10.037505      -273.1344
  12   2.0000     -10.036667      -273.1116
  13   2.0000     -10.036385      -273.1039
  14   2.0000     -10.035366      -273.0762
  15   2.0000     -10.035143      -273.0701
  16   2.0000     -10.034368      -273.0490
  17   2.0000     -10.022450      -272.7247
  18   2.0000      -1.186125       -32.2761
  19   2.0000      -1.084130       -29.5007
  20   2.0000      -0.989869       -26.9357
  21   2.0000      -0.852646       -23.2017
  22   2.0000      -0.830470       -22.5982
  23   2.0000      -0.785999       -21.3881
  24   2.0000      -0.741448       -20.1758
  25   2.0000      -0.725225       -19.7344
  26   2.0000      -0.718411       -19.5490
  27   2.0000      -0.691999       -18.8302
  28   2.0000      -0.638379       -17.3712
  29   2.0000      -0.612590       -16.6694
  30   2.0000      -0.596265       -16.2252
  31   2.0000      -0.576218       -15.6797
  32   2.0000      -0.566824       -15.4241
  33   2.0000      -0.555939       -15.1279
  34   2.0000      -0.512581       -13.9480
  35   2.0000      -0.489898       -13.3308
  36   2.0000      -0.474407       -12.9093
  37   2.0000      -0.462818       -12.5939
  38   2.0000      -0.456395       -12.4191
  39   2.0000      -0.448429       -12.2024
  40   2.0000      -0.436615       -11.8809
  41   2.0000      -0.434335       -11.8189
  42   2.0000      -0.419784       -11.4229
  43   2.0000      -0.411644       -11.2014
  44   2.0000      -0.405028       -11.0214
  45   2.0000      -0.401407       -10.9228
  46   2.0000      -0.388668       -10.5762
  47   2.0000      -0.382922       -10.4198
  48   2.0000      -0.373701       -10.1689
  49   2.0000      -0.362267        -9.8578
  50   2.0000      -0.358150        -9.7458
  51   2.0000      -0.351016        -9.5516
  52   2.0000      -0.340793        -9.2734
  53   2.0000      -0.335679        -9.1343
  54   2.0000      -0.322354        -8.7717
  55   2.0000      -0.322012        -8.7624
  56   2.0000      -0.310898        -8.4600
  57   2.0000      -0.307764        -8.3747
  58   2.0000      -0.298108        -8.1119
  59   2.0000      -0.266780        -7.2594
  60   2.0000      -0.250104        -6.8057
  61   2.0000      -0.242591        -6.6012
  62   2.0000      -0.239464        -6.5161
  63   2.0000      -0.217129        -5.9084
  64   0.0000      -0.063736        -1.7344
  65   0.0000      -0.038872        -1.0578
  66   0.0000      -0.035368        -0.9624
  67   0.0000      -0.028899        -0.7864
  68   0.0000      -0.003723        -0.1013

MULLIKEN ATOMIC CHARGES
-----------------------
   0 C :   -0.547029
   1 C :    0.008622
   2 H :    0.186459
   3 C :    0.125801
   4 C :   -0.281656
   5 C :   -0.203799
   6 C :    0.069934
   7 C :    0.299474
   8 C :   -0.345733
   9 F :   -0.250855
  10 C :    0.059866
  11 C :   -0.212634
  12 C :   -0.211388
  13 C :   -0.163210
  14 C :   -0.212582
  15 C :   -0.211837
  16 C :    0.304565
  17 O :   -0.464282
  18 O :   -0.347179
  19 H :    0.183067
  20 H :    0.173421
  21 H :    0.173439
  22 H :    0.183872
  23 H :    0.186485
  24 H :    0.208279
  25 H :    0.183318
  26 H :    0.178655
  27 H :    0.180430
  28 H :    0.178840
  29 H :    0.184604
  30 H :    0.383051
Sum of atomic charges:   -0.0000000

LOEWDIN ATOMIC CHARGES
----------------------
   0 C :   -0.373712
   1 C :   -0.139113
   2 H :    0.197751
   3 C :   -0.061215
   4 C :   -0.157382
   5 C :   -0.129287
   6 C :   -0.069516
   7 C :    0.231139
   8 C :   -0.134506
   9 F :   -0.299882
  10 C :   -0.074828
  11 C :   -0.146657
  12 C :   -0.168282
  13 C :   -0.171930
  14 C :   -0.167855
  15 C :   -0.149588
  16 C :    0.361552
  17 O :   -0.475663
  18 O :   -0.386918
  19 H :    0.171509
  20 H :    0.166107
  21 H :    0.166798
  22 H :    0.186018
  23 H :    0.189462
  24 H :    0.204720
  25 H :    0.185428
  26 H :    0.179345
  27 H :    0.178306
  28 H :    0.179394
  29 H :    0.185304
  30 H :    0.323502

  Mayer bond orders larger than 0.100000
B(  0-C ,  1-C ) :   0.9020 B(  0-C , 19-H ) :   0.9634 B(  0-C , 20-H ) :   0.9676
B(  0-C , 21-H ) :   0.9674 B(  1-C ,  2-H ) :   0.9607 B(  1-C ,  3-C ) :   0.8032
B(  1-C , 16-C ) :   0.9742 B(  3-C ,  4-C ) :   1.3786 B(  3-C ,  6-C ) :   0.1024
B(  3-C ,  8-C ) :   1.3438 B(  4-C ,  5-C ) :   1.4255 B(  4-C , 22-H ) :   0.9479
B(  5-C ,  6-C ) :   1.3515 B(  5-C , 23-H ) :   0.9428 B(  6-C ,  7-C ) :   1.4215
B(  6-C , 10-C ) :   0.7651 B(  7-C ,  8-C ) :   1.3966 B(  7-C ,  9-F ) :   0.8987
B(  8-C , 24-H ) :   0.9134 B( 10-C , 11-C ) :   1.3791 B( 10-C , 15-C ) :   1.3706
B( 11-C , 12-C ) :   1.4110 B( 11-C , 25-H ) :   0.9466 B( 12-C , 13-C ) :   1.3791
B( 12-C , 26-H ) :   0.9594 B( 13-C , 14-C ) :   1.3807 B( 13-C , 27-H ) :   0.9521
B( 14-C , 15-C ) :   1.4161 B( 14-C , 28-H ) :   0.9589 B( 15-C , 29-H ) :   0.9456
B( 16-C , 17-O ) :   1.8807 B( 16-C , 18-O ) :   1.0787 B( 18-O , 30-H ) :   0.8327

Dispersion correction           -0.013443976
FINAL SINGLE POINT ENERGY      -829.589648430862

DIPOLE MOMENT
-------------

Method             : SCF
Type of density    : Electron Density
Multiplicity       :   1
Irrep              :   0
Energy             :  -829.5868858798754673 Eh
Relativity type    :
Basis              : AO
                                X                 Y                 Z
Electronic contribution:      0.799661746       3.706647377       5.549166056
Nuclear contribution   :     -0.904423718      -3.376262065      -6.323534192
                        -----------------------------------------
Total Dipole Moment    :     -0.104761972       0.330385311      -0.774368136
                        -----------------------------------------
Magnitude (a.u.)       :      0.848395860
Magnitude (Debye)      :      2.156450900

Rotational constants in cm-1:             0.038591             0.006437             0.006144
Rotational constants in MHz :          1156.914736           192.964953           184.186204

                             ****ORCA TERMINATED NORMALLY****
TOTAL RUN TIME: 0 days 0 hours 1 minutes 48 seconds 408 msec
