                         Program Version 6.0.0  -   RELEASE  -
|  1> ! pbe def2-sv(p) def2/J RI DEFGRID1 loosescf d4 GCP(DFT/SV(P)) printgap
|  2> %output
|  3>     printlevel normal
|  4> end
|  5> * xyz 0 1
|  6> C 1.7952515493 -0.8191668622 0.3581530024
|  7> C 1.210550223 0.5650109876 0.0936912214
|  8> C 0.0295942071 0.537367114 -0.8867940511
|  9> C -1.343257831 0.5252124562 -0.2100644128
| 10> N -1.5851491182 -0.7170314739 0.5126354847
| 11> H 1.0291220252 -1.5078907125 0.7021530867
| 12> H 2.225947576 -1.2233508268 -0.5550891896
| 13> H 2.5791474196 -0.7631016527 1.1105407949
| 14> H 0.891117177 1.0169656499 1.0360412415
| 15> H 2.000650784 1.1995375302 -0.3134777683
| 16> H 0.0645511076 1.4225905254 -1.5243242499
| 17> H 0.1091081286 -0.3416267991 -1.5263811597
| 18> H -2.1126568669 0.6039602929 -0.9839934352
| 19> H -1.4276410592 1.418239883 0.4351427733
| 20> H -2.5335467666 -0.7235274675 0.8703162968
| 21> H -0.9620860084 -0.7711408649 1.3115625267
| 22> *
| 23>
| 24>                          ****END OF INPUT****

CARTESIAN COORDINATES (ANGSTROEM)
---------------------------------
  C      1.795252   -0.819167    0.358153
  C      1.210550    0.565011    0.093691
  C      0.029594    0.537367   -0.886794
  C     -1.343258    0.525212   -0.210064
  N     -1.585149   -0.717031    0.512635
  H      1.029122   -1.507891    0.702153
  H      2.225948   -1.223351   -0.555089
  H      2.579147   -0.763102    1.110541
  H      0.891117    1.016966    1.036041
  H      2.000651    1.199538   -0.313478
  H      0.064551    1.422591   -1.524324
  H      0.109108   -0.341627   -1.526381
  H     -2.112657    0.603960   -0.983993
  H     -1.427641    1.418240    0.435143
  H     -2.533547   -0.723527    0.870316
  H     -0.962086   -0.771141    1.311563

 Total Charge           Charge          ....    0
 Multiplicity           Mult            ....    1
 Number of Electrons    NEL             ....   42
 Basis Dimension        Dim             ....   92

ORBITAL ENERGIES
----------------

  NO   OCC          E(Eh)            E(eV)
   0   2.0000     -13.955345      -379.7442
   1   2.0000      -9.903612      -269.4910
   2   2.0000      -9.880908      -268.8732
   3   2.0000      -9.875216      -268.7183
   4   2.0000      -9.868600      -268.5382
   5   2.0000      -0.791838       -21.5470
   6   2.0000      -0.701345       -19.0846
   7   2.0000      -0.630908       -17.1679
   8   2.0000      -0.551272       -15.0009
   9   2.0000      -0.501621       -13.6498
  10   2.0000      -0.446379       -12.1466
  11   2.0000      -0.414782       -11.2868
  12   2.0000      -0.386170       -10.5082
  13   2.0000      -0.378247       -10.2926
  14   2.0000      -0.350724        -9.5437
  15   2.0000      -0.331102        -9.0097
  16   2.0000      -0.321178        -8.7397
  17   2.0000      -0.288221        -7.8429
  18   2.0000      -0.280373        -7.6293
  19   2.0000      -0.272185        -7.4065
  20   2.0000      -0.181031        -4.9261
  21   0.0000       0.029455         0.8015
  22   0.0000       0.063563         1.7296
  23   0.0000       0.065258         1.7758
  24   0.0000       0.078855         2.1458
  25   0.0000       0.100084         2.7234

MULLIKEN ATOMIC CHARGES
-----------------------
   0 C :   -0.290129
   1 C :   -0.199391
   2 C :   -0.144136
   3 C :   -0.098055
   4 N :   -0.460995
   5 H :    0.104908
   6 H :    0.102852
   7 H :    0.098130
   8 H :    0.081454
   9 H :    0.085510
  10 H :    0.078552
  11 H :    0.088248
  12 H :    0.079234
  13 H :    0.064241
  14 H :    0.202714
  15 H :    0.206864
Sum of atomic charges:   -0.0000000

LOEWDIN ATOMIC CHARGES
----------------------
   0 C :   -0.344012
   1 C :   -0.239379
   2 C :   -0.236080
   3 C :   -0.175434
   4 N :   -0.419128
   5 H :    0.115813
   6 H :    0.118487
   7 H :    0.115866
   8 H :    0.109645
   9 H :    0.116582
  10 H :    0.117070
  11 H :    0.119814
  12 H :    0.110325
  13 H :    0.086231
  14 H :    0.204334
  15 H :    0.199866

  Mayer bond orders larger than 0.100000
B(  0-C ,  1-C ) :   1.1611 B(  0-C ,  5-H ) :   0.9459 B(  0-C ,  6-H ) :   0.9530
B(  0-C ,  7-H ) :   0.9514 B(  1-C ,  2-C ) :   1.0911 B(  1-C ,  8-H ) :   0.9316
B(  1-C ,  9-H ) :   0.9313 B(  2-C ,  3-C ) :   1.1365 B(  2-C , 10-H ) :   0.9216
B(  2-C , 11-H ) :   0.9207 B(  3-C ,  4-N ) :   1.1233 B(  3-C , 12-H ) :   0.9288
B(  3-C , 13-H ) :   0.9168 B(  4-N , 14-H ) :   0.9046 B(  4-N , 15-H ) :   0.8887

Dispersion correction           -0.010556531
FINAL SINGLE POINT ENERGY      -213.241887797513

DIPOLE MOMENT
-------------

Method             : SCF
Type of density    : Electron Density
Multiplicity       :   1
Irrep              :   0
Energy             :  -213.3021308745347255 Eh
Relativity type    :
Basis              : AO
                                X                 Y                 Z
Electronic contribution:     -1.874755633       0.029646762      -0.180470092
Nuclear contribution   :      1.739804026       0.306290503       0.530508966
                        -----------------------------------------
Total Dipole Moment    :     -0.134951608       0.335937265       0.350038874
                        -----------------------------------------
Magnitude (a.u.)       :      0.503580178
Magnitude (Debye)      :      1.279999089

Rotational constants in cm-1:             0.259311             0.106753             0.085459
Rotational constants in MHz :          7773.956481          3200.365544          2561.983825

                             ****ORCA TERMINATED NORMALLY****
TOTAL RUN TIME: 0 days 0 hours 0 minutes 6 seconds 652 msec
