                         Program Version 6.0.0  -   RELEASE  -
|  1> ! pbe def2-sv(p) def2/J RI DEFGRID1 loosescf d4 GCP(DFT/SV(P)) printgap
|  2> %output
|  3>     printlevel normal
|  4> end
|  5> * xyz 0 1
|  6> C -3.3772464817 -1.0240543511 0.0692229569
|  7> C -1.9516310427 -0.645373209 0.4488295456
|  8> C -1.3182833188 0.2677319109 -0.6113809036
|  9> C 0.0681125732 0.6516139286 -0.169844005
| 10> O 0.3184040336 1.5023579045 0.6591554818
| 11> O 0.9938090132 -0.0753700356 -0.7817076965
| 12> C 2.3721485302 0.1213351538 -0.4229186035
| 13> C 2.7635938933 -0.7676208926 0.7475535786
| 14> H -3.3905936045 -1.5473810947 -0.8832692571
| 15> H -3.8060052343 -1.6737988192 0.8271770635
| 16> H -3.9979839313 -0.1358453924 -0.0153737793
| 17> H -1.3457429693 -1.5478710893 0.5506598973
| 18> H -1.9468058784 -0.1254017149 1.409157097
| 19> H -1.91600644 1.1737043416 -0.7115004801
| 20> H -1.2579263147 -0.2519717548 -1.5663370928
| 21> H 2.9314996566 -0.1369245356 -1.3225778442
| 22> H 2.5192650994 1.1763566033 -0.1724798594
| 23> H 2.5658964421 -1.8091657949 0.5090034439
| 24> H 3.8208412299 -0.6419806826 0.9567998854
| 25> H 2.1931671657 -0.4914078869 1.6316935882
| 26> *
| 27>
| 28>                          ****END OF INPUT****

CARTESIAN COORDINATES (ANGSTROEM)
---------------------------------
  C     -3.377246   -1.024054    0.069223
  C     -1.951631   -0.645373    0.448830
  C     -1.318283    0.267732   -0.611381
  C      0.068113    0.651614   -0.169844
  O      0.318404    1.502358    0.659155
  O      0.993809   -0.075370   -0.781708
  C      2.372149    0.121335   -0.422919
  C      2.763594   -0.767621    0.747554
  H     -3.390594   -1.547381   -0.883269
  H     -3.806005   -1.673799    0.827177
  H     -3.997984   -0.135845   -0.015374
  H     -1.345743   -1.547871    0.550660
  H     -1.946806   -0.125402    1.409157
  H     -1.916006    1.173704   -0.711500
  H     -1.257926   -0.251972   -1.566337
  H      2.931500   -0.136925   -1.322578
  H      2.519265    1.176357   -0.172480
  H      2.565896   -1.809166    0.509003
  H      3.820841   -0.641981    0.956800
  H      2.193167   -0.491408    1.631694

 Total Charge           Charge          ....    0
 Multiplicity           Mult            ....    1
 Number of Electrons    NEL             ....   64
 Basis Dimension        Dim             ....  136

ORBITAL ENERGIES
----------------

  NO   OCC          E(Eh)            E(eV)
   0   2.0000     -18.796299      -511.4733
   1   2.0000     -18.729105      -509.6448
   2   2.0000     -10.002920      -272.1933
   3   2.0000      -9.945211      -270.6230
   4   2.0000      -9.895469      -269.2694
   5   2.0000      -9.895393      -269.2673
   6   2.0000      -9.886827      -269.0342
   7   2.0000      -9.880367      -268.8584
   8   2.0000      -1.002592       -27.2819
   9   2.0000      -0.906345       -24.6629
  10   2.0000      -0.728637       -19.8272
  11   2.0000      -0.697078       -18.9685
  12   2.0000      -0.639426       -17.3997
  13   2.0000      -0.587785       -15.9944
  14   2.0000      -0.534833       -14.5536
  15   2.0000      -0.494406       -13.4535
  16   2.0000      -0.451437       -12.2842
  17   2.0000      -0.431768       -11.7490
  18   2.0000      -0.423640       -11.5278
  19   2.0000      -0.402094       -10.9415
  20   2.0000      -0.388721       -10.5776
  21   2.0000      -0.376218       -10.2374
  22   2.0000      -0.355126        -9.6635
  23   2.0000      -0.348751        -9.4900
  24   2.0000      -0.342615        -9.3230
  25   2.0000      -0.330520        -8.9939
  26   2.0000      -0.313264        -8.5244
  27   2.0000      -0.298798        -8.1307
  28   2.0000      -0.297897        -8.1062
  29   2.0000      -0.287736        -7.8297
  30   2.0000      -0.253526        -6.8988
  31   2.0000      -0.214771        -5.8442
  32   0.0000      -0.017721        -0.4822
  33   0.0000       0.038590         1.0501
  34   0.0000       0.052729         1.4348
  35   0.0000       0.075303         2.0491
  36   0.0000       0.078592         2.1386

MULLIKEN ATOMIC CHARGES
-----------------------
   0 C :   -0.242817
   1 C :   -0.240137
   2 C :   -0.119710
   3 C :    0.114659
   4 O :   -0.216122
   5 O :   -0.239261
   6 C :   -0.013731
   7 C :   -0.302409
   8 H :    0.098934
   9 H :    0.107162
  10 H :    0.100965
  11 H :    0.094980
  12 H :    0.106789
  13 H :    0.100876
  14 H :    0.091903
  15 H :    0.101005
  16 H :    0.108108
  17 H :    0.112086
  18 H :    0.111887
  19 H :    0.124833
Sum of atomic charges:   -0.0000000

LOEWDIN ATOMIC CHARGES
----------------------
   0 C :   -0.339067
   1 C :   -0.224954
   2 C :   -0.242704
   3 C :    0.037771
   4 O :   -0.176197
   5 O :   -0.068072
   6 C :   -0.113736
   7 C :   -0.355867
   8 H :    0.118128
   9 H :    0.121893
  10 H :    0.119311
  11 H :    0.117905
  12 H :    0.122979
  13 H :    0.135447
  14 H :    0.127595
  15 H :    0.116550
  16 H :    0.119577
  17 H :    0.123535
  18 H :    0.129999
  19 H :    0.129906

  Mayer bond orders larger than 0.100000
B(  0-C ,  1-C ) :   1.1582 B(  0-C ,  8-H ) :   0.9529 B(  0-C ,  9-H ) :   0.9517
B(  0-C , 10-H ) :   0.9536 B(  1-C ,  2-C ) :   1.1294 B(  1-C , 11-H ) :   0.9272
B(  1-C , 12-H ) :   0.9253 B(  2-C ,  3-C ) :   1.0234 B(  2-C , 13-H ) :   0.8989
B(  2-C , 14-H ) :   0.9032 B(  3-C ,  4-O ) :   2.0378 B(  3-C ,  5-O ) :   1.2139
B(  5-O ,  6-C ) :   0.9213 B(  6-C ,  7-C ) :   1.1740 B(  6-C , 15-H ) :   0.9371
B(  6-C , 16-H ) :   0.9113 B(  7-C , 17-H ) :   0.9494 B(  7-C , 18-H ) :   0.9446
B(  7-C , 19-H ) :   0.9465

Dispersion correction           -0.014762444
FINAL SINGLE POINT ENERGY      -385.457882990457

DIPOLE MOMENT
-------------

Method             : SCF
Type of density    : Electron Density
Multiplicity       :   1
Irrep              :   0
Energy             :  -385.5327599156350402 Eh
Relativity type    :
Basis              : AO
                                X                 Y                 Z
Electronic contribution:      3.527959623       5.000066675      -1.470383401
Nuclear contribution   :     -3.386457771      -5.618805703       1.136134570
                        -----------------------------------------
Total Dipole Moment    :      0.141501852      -0.618739028      -0.334248830
                        -----------------------------------------
Magnitude (a.u.)       :      0.717344436
Magnitude (Debye)      :      1.823344653

Rotational constants in cm-1:             0.138316             0.032111             0.030281
Rotational constants in MHz :          4146.606010           962.673985           907.814181

                             ****ORCA TERMINATED NORMALLY****
TOTAL RUN TIME: 0 days 0 hours 0 minutes 10 seconds 763 msec
