                         Program Version 6.0.0  -   RELEASE  -
|  1> ! pbe def2-sv(p) def2/J RI DEFGRID1 loosescf d4 GCP(DFT/SV(P)) printgap
|  2> %output
|  3>     printlevel normal
|  4> end
|  5> * xyz 0 1
|  6> C -3.2903147431 -0.8699559781 0.303010661
|  7> C -1.8870050914 -0.6146570064 -0.2335420643
|  8> C -1.5028124633 0.859509803 -0.1240517625
|  9> C -0.1156429486 1.1339900641 -0.7132397207
| 10> C 0.9543223233 0.4525409805 0.0997437643
| 11> O 1.110073099 0.5884457475 1.2954932366
| 12> O 1.7137016571 -0.3302925967 -0.6578159377
| 13> C 2.7909455429 -1.0525143827 -0.0526073815
| 14> H -3.3546557617 -0.5814729761 1.3496214602
| 15> H -4.0214845904 -0.2928598206 -0.2578981302
| 16> H -3.5448322442 -1.9233716848 0.2201413342
| 17> H -1.1674929901 -1.2156491012 0.3286704066
| 18> H -1.8344486457 -0.9256187428 -1.2791098225
| 19> H -1.5025068901 1.1583537802 0.9262132491
| 20> H -2.2380841972 1.4666578552 -0.6533275022
| 21> H 0.0834063243 2.2064555725 -0.682787414
| 22> H -0.0491385323 0.7822429049 -1.7420325342
| 23> H 3.7284401521 -0.572855035 -0.3311265978
| 24> H 2.7520301852 -2.0659086846 -0.4445931381
| 25> H 2.6766393107 -1.0484309922 1.0320600412
| 26> *
| 27>
| 28>                          ****END OF INPUT****

CARTESIAN COORDINATES (ANGSTROEM)
---------------------------------
  C     -3.290315   -0.869956    0.303011
  C     -1.887005   -0.614657   -0.233542
  C     -1.502812    0.859510   -0.124052
  C     -0.115643    1.133990   -0.713240
  C      0.954322    0.452541    0.099744
  O      1.110073    0.588446    1.295493
  O      1.713702   -0.330293   -0.657816
  C      2.790946   -1.052514   -0.052607
  H     -3.354656   -0.581473    1.349621
  H     -4.021485   -0.292860   -0.257898
  H     -3.544832   -1.923372    0.220141
  H     -1.167493   -1.215649    0.328670
  H     -1.834449   -0.925619   -1.279110
  H     -1.502507    1.158354    0.926213
  H     -2.238084    1.466658   -0.653328
  H      0.083406    2.206456   -0.682787
  H     -0.049139    0.782243   -1.742033
  H      3.728440   -0.572855   -0.331127
  H      2.752030   -2.065909   -0.444593
  H      2.676639   -1.048431    1.032060

 Total Charge           Charge          ....    0
 Multiplicity           Mult            ....    1
 Number of Electrons    NEL             ....   64
 Basis Dimension        Dim             ....  136

ORBITAL ENERGIES
----------------

  NO   OCC          E(Eh)            E(eV)
   0   2.0000     -18.799745      -511.5671
   1   2.0000     -18.731029      -509.6972
   2   2.0000     -10.005033      -272.2508
   3   2.0000      -9.939941      -270.4796
   4   2.0000      -9.896201      -269.2893
   5   2.0000      -9.889079      -269.0955
   6   2.0000      -9.885117      -268.9877
   7   2.0000      -9.874725      -268.7049
   8   2.0000      -1.004258       -27.3272
   9   2.0000      -0.908579       -24.7237
  10   2.0000      -0.730902       -19.8889
  11   2.0000      -0.684922       -18.6377
  12   2.0000      -0.647270       -17.6131
  13   2.0000      -0.576460       -15.6863
  14   2.0000      -0.525644       -14.3035
  15   2.0000      -0.499034       -13.5794
  16   2.0000      -0.451988       -12.2992
  17   2.0000      -0.436397       -11.8750
  18   2.0000      -0.422253       -11.4901
  19   2.0000      -0.402899       -10.9634
  20   2.0000      -0.394776       -10.7424
  21   2.0000      -0.380818       -10.3626
  22   2.0000      -0.368168       -10.0184
  23   2.0000      -0.340637        -9.2692
  24   2.0000      -0.335264        -9.1230
  25   2.0000      -0.322452        -8.7744
  26   2.0000      -0.302107        -8.2207
  27   2.0000      -0.291921        -7.9436
  28   2.0000      -0.288409        -7.8480
  29   2.0000      -0.283882        -7.7248
  30   2.0000      -0.255408        -6.9500
  31   2.0000      -0.219307        -5.9677
  32   0.0000      -0.018919        -0.5148
  33   0.0000       0.040192         1.0937
  34   0.0000       0.056957         1.5499
  35   0.0000       0.064296         1.7496
  36   0.0000       0.074744         2.0339

MULLIKEN ATOMIC CHARGES
-----------------------
   0 C :   -0.256060
   1 C :   -0.210930
   2 C :   -0.195950
   3 C :   -0.100181
   4 C :    0.084144
   5 O :   -0.207048
   6 O :   -0.239086
   7 C :   -0.130508
   8 H :    0.101496
   9 H :    0.096541
  10 H :    0.102521
  11 H :    0.102014
  12 H :    0.084105
  13 H :    0.103368
  14 H :    0.086135
  15 H :    0.112106
  16 H :    0.091262
  17 H :    0.121696
  18 H :    0.122206
  19 H :    0.132167
Sum of atomic charges:    0.0000000

LOEWDIN ATOMIC CHARGES
----------------------
   0 C :   -0.338671
   1 C :   -0.236685
   2 C :   -0.220257
   3 C :   -0.244639
   4 C :    0.035324
   5 O :   -0.173874
   6 O :   -0.072767
   7 C :   -0.209453
   8 H :    0.119325
   9 H :    0.116484
  10 H :    0.119119
  11 H :    0.117639
  12 H :    0.114100
  13 H :    0.123855
  14 H :    0.116792
  15 H :    0.142274
  16 H :    0.126819
  17 H :    0.120239
  18 H :    0.120681
  19 H :    0.123695

  Mayer bond orders larger than 0.100000
B(  0-C ,  1-C ) :   1.1576 B(  0-C ,  8-H ) :   0.9545 B(  0-C ,  9-H ) :   0.9546
B(  0-C , 10-H ) :   0.9533 B(  1-C ,  2-C ) :   1.1341 B(  1-C , 11-H ) :   0.9192
B(  1-C , 12-H ) :   0.9260 B(  2-C ,  3-C ) :   1.1128 B(  2-C , 13-H ) :   0.9143
B(  2-C , 14-H ) :   0.9231 B(  3-C ,  4-C ) :   1.0103 B(  3-C , 15-H ) :   0.8933
B(  3-C , 16-H ) :   0.9074 B(  4-C ,  5-O ) :   2.0587 B(  4-C ,  6-O ) :   1.2170
B(  6-O ,  7-C ) :   0.9372 B(  7-C , 17-H ) :   0.9603 B(  7-C , 18-H ) :   0.9609
B(  7-C , 19-H ) :   0.9305

Dispersion correction           -0.015089338
FINAL SINGLE POINT ENERGY      -385.452653839643

DIPOLE MOMENT
-------------

Method             : SCF
Type of density    : Electron Density
Multiplicity       :   1
Irrep              :   0
Energy             :  -385.5277782515423723 Eh
Relativity type    :
Basis              : AO
                                X                 Y                 Z
Electronic contribution:      8.031649302       2.521930656       0.828959523
Nuclear contribution   :     -7.906396841      -2.822358830      -1.429850350
                        -----------------------------------------
Total Dipole Moment    :      0.125252461      -0.300428174      -0.600890827
                        -----------------------------------------
Magnitude (a.u.)       :      0.683384996
Magnitude (Debye)      :      1.737026617

Rotational constants in cm-1:             0.125628             0.033421             0.031514
Rotational constants in MHz :          3766.224497          1001.932733           944.774405

                             ****ORCA TERMINATED NORMALLY****
TOTAL RUN TIME: 0 days 0 hours 0 minutes 10 seconds 653 msec
