                         Program Version 6.0.0  -   RELEASE  -
|  1> ! pbe def2-sv(p) def2/J RI DEFGRID1 loosescf d4 GCP(DFT/SV(P)) printgap
|  2> %output
|  3>     printlevel normal
|  4> end
|  5> * xyz 0 1
|  6> C -4.6798661546 -1.0208239702 -0.2825676898
|  7> C -3.9724501065 -2.2065429503 -0.1399869126
|  8> C -2.5991000362 -2.1789367475 0.0168894851
|  9> C -1.9080456292 -0.9690641958 0.032614612
| 10> C -2.6229013049 0.2251667084 -0.1124641473
| 11> C -4.0074424209 0.1864904676 -0.2683884417
| 12> C -1.9309990012 1.5197757093 -0.1033687603
| 13> O -2.5453310665 2.5777040042 -0.2249983846
| 14> C -0.466008778 1.4903172572 0.0543323817
| 15> C 0.1883799931 2.709780403 0.0331115111
| 16> C 1.5727410737 2.7676037427 0.1677965355
| 17> C 2.2969775916 1.6168427504 0.3262656585
| 18> C 1.6727892415 0.3463565511 0.3643511498
| 19> C 0.2521915497 0.2819126207 0.2167024916
| 20> C -0.4425663542 -0.9880701217 0.2103527362
| 21> O 0.1309809484 -2.0838944971 0.3404813077
| 22> N 2.3865739276 -0.7708171943 0.5643225439
| 23> C 3.8205377679 -0.8775998708 0.6009459307
| 24> C 4.435452788 -0.8759034026 -0.8146561226
| 25> O 5.8107355694 -1.1691459619 -0.799912121
| 26> H -5.751380724 -1.0395268527 -0.4043341987
| 27> H -4.4924826942 -3.1515430828 -0.1506436039
| 28> H -2.0311716412 -3.0903759792 0.1309734779
| 29> H -4.5316808921 1.1244183963 -0.3772410915
| 30> H -0.4004143926 3.6052227727 -0.0929355427
| 31> H 2.0722325295 3.7233435763 0.1450136555
| 32> H 3.3667123274 1.6798457257 0.4274779405
| 33> H 1.8512789718 -1.6354263458 0.5118791306
| 34> H 4.0735740669 -1.8236792423 1.0823437094
| 35> H 4.2475602963 -0.0668826372 1.1967148402
| 36> H 4.2435818457 0.0856040581 -1.3081084606
| 37> H 3.9710237517 -1.6649630734 -1.4109108836
| 38> H 6.2870662956 -0.4728718258 -0.3260066435
| 39> *
| 40>
| 41>                          ****END OF INPUT****

CARTESIAN COORDINATES (ANGSTROEM)
---------------------------------
  C     -4.679866   -1.020824   -0.282568
  C     -3.972450   -2.206543   -0.139987
  C     -2.599100   -2.178937    0.016889
  C     -1.908046   -0.969064    0.032615
  C     -2.622901    0.225167   -0.112464
  C     -4.007442    0.186490   -0.268388
  C     -1.930999    1.519776   -0.103369
  O     -2.545331    2.577704   -0.224998
  C     -0.466009    1.490317    0.054332
  C      0.188380    2.709780    0.033112
  C      1.572741    2.767604    0.167797
  C      2.296978    1.616843    0.326266
  C      1.672789    0.346357    0.364351
  C      0.252192    0.281913    0.216702
  C     -0.442566   -0.988070    0.210353
  O      0.130981   -2.083894    0.340481
  N      2.386574   -0.770817    0.564323
  C      3.820538   -0.877600    0.600946
  C      4.435453   -0.875903   -0.814656
  O      5.810736   -1.169146   -0.799912
  H     -5.751381   -1.039527   -0.404334
  H     -4.492483   -3.151543   -0.150644
  H     -2.031172   -3.090376    0.130973
  H     -4.531681    1.124418   -0.377241
  H     -0.400414    3.605223   -0.092936
  H      2.072233    3.723344    0.145014
  H      3.366712    1.679846    0.427478
  H      1.851279   -1.635426    0.511879
  H      4.073574   -1.823679    1.082344
  H      4.247560   -0.066883    1.196715
  H      4.243582    0.085604   -1.308108
  H      3.971024   -1.664963   -1.410911
  H      6.287066   -0.472872   -0.326007

 Total Charge           Charge          ....    0
 Multiplicity           Mult            ....    1
 Number of Electrons    NEL             ....  140
 Basis Dimension        Dim             ....  306

ORBITAL ENERGIES
----------------

  NO   OCC          E(Eh)            E(eV)
   0   2.0000     -18.759990      -510.4853
   1   2.0000     -18.749521      -510.2004
   2   2.0000     -18.743089      -510.0254
   3   2.0000     -14.021238      -381.5373
   4   2.0000      -9.978352      -271.5248
   5   2.0000      -9.974667      -271.4245
   6   2.0000      -9.961097      -271.0552
   7   2.0000      -9.945534      -270.6317
   8   2.0000      -9.938380      -270.4371
   9   2.0000      -9.913929      -269.7717
  10   2.0000      -9.913124      -269.7498
  11   2.0000      -9.912945      -269.7449
  12   2.0000      -9.911579      -269.7078
  13   2.0000      -9.911238      -269.6985
  14   2.0000      -9.909178      -269.6424
  15   2.0000      -9.908960      -269.6365
  16   2.0000      -9.908247      -269.6171
  17   2.0000      -9.905173      -269.5335
  18   2.0000      -9.904375      -269.5118
  19   2.0000      -9.896139      -269.2876
  20   2.0000      -0.941897       -25.6303
  21   2.0000      -0.936589       -25.4859
  22   2.0000      -0.935680       -25.4612
  23   2.0000      -0.875712       -23.8293
  24   2.0000      -0.797484       -21.7006
  25   2.0000      -0.783194       -21.3118
  26   2.0000      -0.726126       -19.7589
  27   2.0000      -0.703910       -19.1544
  28   2.0000      -0.688304       -18.7297
  29   2.0000      -0.684700       -18.6316
  30   2.0000      -0.655190       -17.8286
  31   2.0000      -0.610235       -16.6053
  32   2.0000      -0.598167       -16.2770
  33   2.0000      -0.582702       -15.8561
  34   2.0000      -0.573206       -15.5977
  35   2.0000      -0.539359       -14.6767
  36   2.0000      -0.525001       -14.2860
  37   2.0000      -0.498679       -13.5697
  38   2.0000      -0.492016       -13.3884
  39   2.0000      -0.476872       -12.9763
  40   2.0000      -0.466094       -12.6831
  41   2.0000      -0.447214       -12.1693
  42   2.0000      -0.436670       -11.8824
  43   2.0000      -0.428668       -11.6646
  44   2.0000      -0.423698       -11.5294
  45   2.0000      -0.414094       -11.2681
  46   2.0000      -0.409743       -11.1497
  47   2.0000      -0.401250       -10.9186
  48   2.0000      -0.388473       -10.5709
  49   2.0000      -0.385208       -10.4820
  50   2.0000      -0.380238       -10.3468
  51   2.0000      -0.374473       -10.1899
  52   2.0000      -0.369129       -10.0445
  53   2.0000      -0.359791        -9.7904
  54   2.0000      -0.352717        -9.5979
  55   2.0000      -0.350043        -9.5252
  56   2.0000      -0.337484        -9.1834
  57   2.0000      -0.332180        -9.0391
  58   2.0000      -0.324333        -8.8255
  59   2.0000      -0.317716        -8.6455
  60   2.0000      -0.308908        -8.4058
  61   2.0000      -0.297878        -8.1057
  62   2.0000      -0.280571        -7.6347
  63   2.0000      -0.250243        -6.8095
  64   2.0000      -0.243122        -6.6157
  65   2.0000      -0.241212        -6.5637
  66   2.0000      -0.236528        -6.4363
  67   2.0000      -0.218603        -5.9485
  68   2.0000      -0.205977        -5.6049
  69   2.0000      -0.188177        -5.1206
  70   0.0000      -0.126812        -3.4507
  71   0.0000      -0.079300        -2.1579
  72   0.0000      -0.052572        -1.4306
  73   0.0000      -0.032374        -0.8810
  74   0.0000       0.006528         0.1776

MULLIKEN ATOMIC CHARGES
-----------------------
   0 C :   -0.020811
   1 C :   -0.016432
   2 C :   -0.133360
   3 C :    0.050991
   4 C :    0.037984
   5 C :   -0.125691
   6 C :    0.085427
   7 O :   -0.150083
   8 C :    0.018820
   9 C :   -0.139440
  10 C :   -0.008181
  11 C :   -0.155364
  12 C :    0.080873
  13 C :    0.050399
  14 C :    0.072741
  15 O :   -0.218754
  16 N :   -0.226424
  17 C :   -0.101726
  18 C :    0.000013
  19 O :   -0.425211
  20 H :    0.062805
  21 H :    0.062569
  22 H :    0.059400
  23 H :    0.058465
  24 H :    0.055738
  25 H :    0.058595
  26 H :    0.028401
  27 H :    0.247316
  28 H :    0.107841
  29 H :    0.094003
  30 H :    0.092172
  31 H :    0.098891
  32 H :    0.298032
Sum of atomic charges:   -0.0000000

LOEWDIN ATOMIC CHARGES
----------------------
   0 C :   -0.107490
   1 C :   -0.104713
   2 C :   -0.088211
   3 C :   -0.044699
   4 C :   -0.053536
   5 C :   -0.082843
   6 C :    0.058684
   7 O :   -0.130819
   8 C :   -0.043988
   9 C :   -0.111507
  10 C :   -0.096859
  11 C :   -0.148027
  12 C :    0.034007
  13 C :   -0.090249
  14 C :    0.057031
  15 O :   -0.176724
  16 N :   -0.125738
  17 C :   -0.183529
  18 C :   -0.135657
  19 O :   -0.331084
  20 H :    0.128885
  21 H :    0.128797
  22 H :    0.135267
  23 H :    0.135952
  24 H :    0.135253
  25 H :    0.129597
  26 H :    0.124451
  27 H :    0.243951
  28 H :    0.128315
  29 H :    0.111594
  30 H :    0.100399
  31 H :    0.118802
  32 H :    0.284686

  Mayer bond orders larger than 0.100000
B(  0-C ,  1-C ) :   1.3270 B(  0-C ,  5-C ) :   1.3364 B(  0-C , 20-H ) :   0.9668
B(  1-C ,  2-C ) :   1.3357 B(  1-C , 21-H ) :   0.9665 B(  2-C ,  3-C ) :   1.3813
B(  2-C , 22-H ) :   0.9544 B(  3-C ,  4-C ) :   1.3349 B(  3-C , 14-C ) :   0.9800
B(  4-C ,  5-C ) :   1.3782 B(  4-C ,  6-C ) :   0.9569 B(  5-C , 23-H ) :   0.9569
B(  6-C ,  7-O ) :   2.1560 B(  6-C ,  8-C ) :   0.9487 B(  8-C ,  9-C ) :   1.4280
B(  8-C , 13-C ) :   1.3020 B(  9-C , 10-C ) :   1.2313 B(  9-C , 24-H ) :   0.9566
B( 10-C , 11-C ) :   1.3879 B( 10-C , 25-H ) :   0.9657 B( 11-C , 12-C ) :   1.2422
B( 11-C , 26-H ) :   0.9509 B( 12-C , 13-C ) :   1.2159 B( 12-C , 16-N ) :   1.3836
B( 13-C , 14-C ) :   1.0248 B( 14-C , 15-O ) :   1.9611 B( 15-O , 27-H ) :   0.1452
B( 16-N , 17-C ) :   1.0260 B( 16-N , 27-H ) :   0.7624 B( 17-C , 18-C ) :   1.0829
B( 17-C , 28-H ) :   0.9171 B( 17-C , 29-H ) :   0.9045 B( 18-C , 19-O ) :   1.0763
B( 18-C , 30-H ) :   0.9243 B( 18-C , 31-H ) :   0.9239 B( 19-O , 32-H ) :   0.8529

Dispersion correction           -0.046362461
FINAL SINGLE POINT ENERGY      -896.122325231299

DIPOLE MOMENT
-------------

Method             : SCF
Type of density    : Electron Density
Multiplicity       :   1
Irrep              :   0
Energy             :  -896.2191726759072026 Eh
Relativity type    :
Basis              : AO
                                X                 Y                 Z
Electronic contribution:    -11.347371148       2.516202965       0.844446711
Nuclear contribution   :     12.171353270      -2.572473492      -0.547213392
                        -----------------------------------------
Total Dipole Moment    :      0.823982122      -0.056270527       0.297233319
                        -----------------------------------------
Magnitude (a.u.)       :      0.877758825
Magnitude (Debye)      :      2.231085626

Rotational constants in cm-1:             0.022491             0.006976             0.005475
Rotational constants in MHz :           674.253730           209.140562           164.145044

                             ****ORCA TERMINATED NORMALLY****
TOTAL RUN TIME: 0 days 0 hours 0 minutes 34 seconds 20 msec
