                         Program Version 6.0.0  -   RELEASE  -
|  1> ! r2scan-3c def2/J RI DEFGRID2 scfconv6 printgap
|  2> %output
|  3>     printlevel normal
|  4> end
|  5> * xyz 0 1
|  6> C -3.4173483217 -0.9831072799 0.3283654332
|  7> C -2.0752521414 -0.3183532558 0.6062768779
|  8> C -1.2946052342 -0.0800628589 -0.695338139
|  9> C 0.0094971251 0.5962690505 -0.371861998
| 10> O 0.1832632378 1.7984001102 -0.3474219027
| 11> O 0.9556646442 -0.2819296142 -0.0753567844
| 12> C 2.2512190869 0.2146690354 0.3018497833
| 13> C 3.2426267371 -0.9296834101 0.2136396485
| 14> H -3.9552734139 -1.1427964785 1.2587335435
| 15> H -4.025923212 -0.3570640476 -0.3189073434
| 16> H -3.2723002228 -1.9444679818 -0.1572632237
| 17> H -1.4791475157 -0.9511868735 1.2664153395
| 18> H -2.2321248441 0.6399871455 1.105988906
| 19> H -1.8700580196 0.566752022 -1.3569129096
| 20> H -1.0913896382 -1.0337214417 -1.1805347437
| 21> H 2.5148433867 1.0393150327 -0.3684930314
| 22> H 2.1816734347 0.6095348529 1.3205674043
| 23> H 3.2903464198 -1.304888238 -0.8044588616
| 24> H 4.2245920447 -0.5778528438 0.5119202976
| 25> H 2.9350341405 -1.7375693538 0.8707904483
| 26> *
| 27>
| 28>                          ****END OF INPUT****

CARTESIAN COORDINATES (ANGSTROEM)
---------------------------------
  C     -3.417348   -0.983107    0.328365
  C     -2.075252   -0.318353    0.606277
  C     -1.294605   -0.080063   -0.695338
  C      0.009497    0.596269   -0.371862
  O      0.183263    1.798400   -0.347422
  O      0.955665   -0.281930   -0.075357
  C      2.251219    0.214669    0.301850
  C      3.242627   -0.929683    0.213640
  H     -3.955273   -1.142796    1.258734
  H     -4.025923   -0.357064   -0.318907
  H     -3.272300   -1.944468   -0.157263
  H     -1.479148   -0.951187    1.266415
  H     -2.232125    0.639987    1.105989
  H     -1.870058    0.566752   -1.356913
  H     -1.091390   -1.033721   -1.180535
  H      2.514843    1.039315   -0.368493
  H      2.181673    0.609535    1.320567
  H      3.290346   -1.304888   -0.804459
  H      4.224592   -0.577853    0.511920
  H      2.935034   -1.737569    0.870790

 Total Charge           Charge          ....    0
 Multiplicity           Mult            ....    1
 Number of Electrons    NEL             ....   64
 Basis Dimension        Dim             ....  222

ORBITAL ENERGIES
----------------

  NO   OCC          E(Eh)            E(eV)
   0   2.0000     -18.995647      -516.8978
   1   2.0000     -18.924797      -514.9699
   2   2.0000     -10.149071      -276.1703
   3   2.0000     -10.090912      -274.5877
   4   2.0000     -10.040047      -273.2036
   5   2.0000     -10.038771      -273.1689
   6   2.0000     -10.032026      -272.9853
   7   2.0000     -10.023603      -272.7561
   8   2.0000      -1.070637       -29.1335
   9   2.0000      -0.972015       -26.4499
  10   2.0000      -0.775591       -21.1049
  11   2.0000      -0.743087       -20.2204
  12   2.0000      -0.681108       -18.5339
  13   2.0000      -0.614168       -16.7124
  14   2.0000      -0.567857       -15.4522
  15   2.0000      -0.533889       -14.5279
  16   2.0000      -0.468841       -12.7578
  17   2.0000      -0.457430       -12.4473
  18   2.0000      -0.445053       -12.1105
  19   2.0000      -0.422806       -11.5051
  20   2.0000      -0.405626       -11.0376
  21   2.0000      -0.386068       -10.5054
  22   2.0000      -0.376501       -10.2451
  23   2.0000      -0.363109        -9.8807
  24   2.0000      -0.356911        -9.7120
  25   2.0000      -0.343187        -9.3386
  26   2.0000      -0.327032        -8.8990
  27   2.0000      -0.312219        -8.4959
  28   2.0000      -0.310154        -8.4397
  29   2.0000      -0.307964        -8.3801
  30   2.0000      -0.269638        -7.3372
  31   2.0000      -0.230546        -6.2735
  32   0.0000      -0.013065        -0.3555
  33   0.0000       0.074891         2.0379
  34   0.0000       0.095172         2.5898
  35   0.0000       0.105042         2.8583
  36   0.0000       0.121238         3.2990

MULLIKEN ATOMIC CHARGES
-----------------------
   0 C :   -0.473556
   1 C :   -0.231246
   2 C :   -0.343485
   3 C :    0.411544
   4 O :   -0.426655
   5 O :   -0.172464
   6 C :   -0.150673
   7 C :   -0.441986
   8 H :    0.150724
   9 H :    0.146487
  10 H :    0.144576
  11 H :    0.147053
  12 H :    0.154668
  13 H :    0.162153
  14 H :    0.155190
  15 H :    0.167851
  16 H :    0.148546
  17 H :    0.152873
  18 H :    0.146992
  19 H :    0.151408
Sum of atomic charges:   -0.0000000

LOEWDIN ATOMIC CHARGES
----------------------
   0 C :   -0.419609
   1 C :   -0.287663
   2 C :   -0.230197
   3 C :    0.353852
   4 O :   -0.428784
   5 O :   -0.599617
   6 C :    0.033681
   7 C :   -0.387002
   8 H :    0.153088
   9 H :    0.151543
  10 H :    0.150614
  11 H :    0.158084
  12 H :    0.160840
  13 H :    0.177114
  14 H :    0.175847
  15 H :    0.185249
  16 H :    0.175464
  17 H :    0.159139
  18 H :    0.159437
  19 H :    0.158920

  Mayer bond orders larger than 0.100000
B(  0-C ,  1-C ) :   0.8961 B(  0-C ,  8-H ) :   0.9720 B(  0-C ,  9-H ) :   0.9836
B(  0-C , 10-H ) :   0.9850 B(  1-C ,  2-C ) :   0.9284 B(  1-C , 11-H ) :   0.9628
B(  1-C , 12-H ) :   0.9590 B(  2-C ,  3-C ) :   0.9604 B(  2-C , 13-H ) :   0.9762
B(  2-C , 14-H ) :   0.9813 B(  3-C ,  4-O ) :   1.8288 B(  3-C ,  5-O ) :   1.0519
B(  5-O ,  6-C ) :   0.7997 B(  6-C ,  7-C ) :   0.9441 B(  6-C , 15-H ) :   0.9614
B(  6-C , 16-H ) :   0.9459 B(  7-C , 17-H ) :   0.9744 B(  7-C , 18-H ) :   0.9680
B(  7-C , 19-H ) :   0.9694

Dispersion correction           -0.004856022
FINAL SINGLE POINT ENERGY      -386.235384937112

DIPOLE MOMENT
-------------

Method             : SCF
Type of density    : Electron Density
Multiplicity       :   1
Irrep              :   0
Energy             :  -386.2421224394860815 Eh
Relativity type    :
Basis              : AO
                                X                 Y                 Z
Electronic contribution:      2.761806110       4.927062483      -1.838577173
Nuclear contribution   :     -2.590959503      -5.788478845       2.008768395
                        -----------------------------------------
Total Dipole Moment    :      0.170846607      -0.861416362       0.170191222
                        -----------------------------------------
Magnitude (a.u.)       :      0.894534384
Magnitude (Debye)      :      2.273725707

Rotational constants in cm-1:             0.137677             0.031113             0.027204
Rotational constants in MHz :          4127.445186           932.751011           815.546882

                             ****ORCA TERMINATED NORMALLY****
TOTAL RUN TIME: 0 days 0 hours 0 minutes 29 seconds 868 msec
