                         Program Version 6.0.0  -   RELEASE  -
|  1> ! r2scan-3c def2/J RI DEFGRID2 scfconv6 printgap
|  2> %output
|  3>     printlevel normal
|  4> end
|  5> %cpcm
|  6>     smd true
|  7>     smdsolvent "water"
|  8> end
|  9> * xyz 0 1
| 10> C -3.4173483217 -0.9831072799 0.3283654332
| 11> C -2.0752521414 -0.3183532558 0.6062768779
| 12> C -1.2946052342 -0.0800628589 -0.695338139
| 13> C 0.0094971251 0.5962690505 -0.371861998
| 14> O 0.1832632378 1.7984001102 -0.3474219027
| 15> O 0.9556646442 -0.2819296142 -0.0753567844
| 16> C 2.2512190869 0.2146690354 0.3018497833
| 17> C 3.2426267371 -0.9296834101 0.2136396485
| 18> H -3.9552734139 -1.1427964785 1.2587335435
| 19> H -4.025923212 -0.3570640476 -0.3189073434
| 20> H -3.2723002228 -1.9444679818 -0.1572632237
| 21> H -1.4791475157 -0.9511868735 1.2664153395
| 22> H -2.2321248441 0.6399871455 1.105988906
| 23> H -1.8700580196 0.566752022 -1.3569129096
| 24> H -1.0913896382 -1.0337214417 -1.1805347437
| 25> H 2.5148433867 1.0393150327 -0.3684930314
| 26> H 2.1816734347 0.6095348529 1.3205674043
| 27> H 3.2903464198 -1.304888238 -0.8044588616
| 28> H 4.2245920447 -0.5778528438 0.5119202976
| 29> H 2.9350341405 -1.7375693538 0.8707904483
| 30> *
| 31>
| 32>                          ****END OF INPUT****

CARTESIAN COORDINATES (ANGSTROEM)
---------------------------------
  C     -3.417348   -0.983107    0.328365
  C     -2.075252   -0.318353    0.606277
  C     -1.294605   -0.080063   -0.695338
  C      0.009497    0.596269   -0.371862
  O      0.183263    1.798400   -0.347422
  O      0.955665   -0.281930   -0.075357
  C      2.251219    0.214669    0.301850
  C      3.242627   -0.929683    0.213640
  H     -3.955273   -1.142796    1.258734
  H     -4.025923   -0.357064   -0.318907
  H     -3.272300   -1.944468   -0.157263
  H     -1.479148   -0.951187    1.266415
  H     -2.232125    0.639987    1.105989
  H     -1.870058    0.566752   -1.356913
  H     -1.091390   -1.033721   -1.180535
  H      2.514843    1.039315   -0.368493
  H      2.181673    0.609535    1.320567
  H      3.290346   -1.304888   -0.804459
  H      4.224592   -0.577853    0.511920
  H      2.935034   -1.737569    0.870790

 Total Charge           Charge          ....    0
 Multiplicity           Mult            ....    1
 Number of Electrons    NEL             ....   64
 Basis Dimension        Dim             ....  222

ORBITAL ENERGIES
----------------

  NO   OCC          E(Eh)            E(eV)
   0   2.0000     -19.002312      -517.0792
   1   2.0000     -18.942806      -515.4600
   2   2.0000     -10.161340      -276.5041
   3   2.0000     -10.083775      -274.3935
   4   2.0000     -10.034886      -273.0631
   5   2.0000     -10.030530      -272.9446
   6   2.0000     -10.018805      -272.6255
   7   2.0000     -10.012046      -272.4416
   8   2.0000      -1.079171       -29.3657
   9   2.0000      -0.987723       -26.8773
  10   2.0000      -0.770411       -20.9639
  11   2.0000      -0.735104       -20.0032
  12   2.0000      -0.674126       -18.3439
  13   2.0000      -0.607523       -16.5315
  14   2.0000      -0.559912       -15.2360
  15   2.0000      -0.532909       -14.5012
  16   2.0000      -0.470613       -12.8060
  17   2.0000      -0.459755       -12.5106
  18   2.0000      -0.445876       -12.1329
  19   2.0000      -0.425566       -11.5802
  20   2.0000      -0.402567       -10.9544
  21   2.0000      -0.381172       -10.3722
  22   2.0000      -0.365413        -9.9434
  23   2.0000      -0.360181        -9.8010
  24   2.0000      -0.348306        -9.4779
  25   2.0000      -0.336854        -9.1663
  26   2.0000      -0.321152        -8.7390
  27   2.0000      -0.312676        -8.5084
  28   2.0000      -0.304876        -8.2961
  29   2.0000      -0.300474        -8.1763
  30   2.0000      -0.276375        -7.5205
  31   2.0000      -0.248477        -6.7614
  32   0.0000      -0.022733        -0.6186
  33   0.0000       0.077702         2.1144
  34   0.0000       0.104461         2.8425
  35   0.0000       0.115677         3.1477
  36   0.0000       0.128385         3.4935

MULLIKEN ATOMIC CHARGES
-----------------------
   0 C :   -0.517466
   1 C :   -0.218724
   2 C :   -0.368606
   3 C :    0.455589
   4 O :   -0.515647
   5 O :   -0.186690
   6 C :   -0.151348
   7 C :   -0.489462
   8 H :    0.162461
   9 H :    0.159049
  10 H :    0.159088
  11 H :    0.157302
  12 H :    0.157778
  13 H :    0.176562
  14 H :    0.177089
  15 H :    0.171876
  16 H :    0.172229
  17 H :    0.165901
  18 H :    0.168696
  19 H :    0.164322
Sum of atomic charges:   -0.0000000

LOEWDIN ATOMIC CHARGES
----------------------
   0 C :   -0.424774
   1 C :   -0.285216
   2 C :   -0.228170
   3 C :    0.363203
   4 O :   -0.492738
   5 O :   -0.599709
   6 C :    0.036409
   7 C :   -0.389856
   8 H :    0.156422
   9 H :    0.154852
  10 H :    0.154896
  11 H :    0.161622
  12 H :    0.161415
  13 H :    0.182439
  14 H :    0.185405
  15 H :    0.187206
  16 H :    0.183501
  17 H :    0.162336
  18 H :    0.168190
  19 H :    0.162567

  Mayer bond orders larger than 0.100000
B(  0-C ,  1-C ) :   0.8882 B(  0-C ,  8-H ) :   0.9687 B(  0-C ,  9-H ) :   0.9813
B(  0-C , 10-H ) :   0.9820 B(  1-C ,  2-C ) :   0.9178 B(  1-C , 11-H ) :   0.9596
B(  1-C , 12-H ) :   0.9583 B(  2-C ,  3-C ) :   0.9566 B(  2-C , 13-H ) :   0.9750
B(  2-C , 14-H ) :   0.9703 B(  3-C ,  4-O ) :   1.7549 B(  3-C ,  5-O ) :   1.0813
B(  5-O ,  6-C ) :   0.7861 B(  6-C ,  7-C ) :   0.9446 B(  6-C , 15-H ) :   0.9554
B(  6-C , 16-H ) :   0.9370 B(  7-C , 17-H ) :   0.9730 B(  7-C , 18-H ) :   0.9616
B(  7-C , 19-H ) :   0.9665

Dispersion correction           -0.004856022
FINAL SINGLE POINT ENERGY      -386.241050006706

DIPOLE MOMENT
-------------

Method             : SCF
Type of density    : Electron Density
Multiplicity       :   1
Irrep              :   0
Energy             :  -386.2477875090805242 Eh
Relativity type    :
Basis              : AO
                                X                 Y                 Z
Electronic contribution:      2.807931838       4.584058757      -1.797298613
Nuclear contribution   :     -2.590959503      -5.788478845       2.008768395
                        -----------------------------------------
Total Dipole Moment    :      0.216972335      -1.204420088       0.211469782
                        -----------------------------------------
Magnitude (a.u.)       :      1.241943723
Magnitude (Debye)      :      3.156770072

Rotational constants in cm-1:             0.137677             0.031113             0.027204
Rotational constants in MHz :          4127.445186           932.751011           815.546882

                             ****ORCA TERMINATED NORMALLY****
TOTAL RUN TIME: 0 days 0 hours 0 minutes 36 seconds 322 msec
