                         Program Version 6.0.0  -   RELEASE  -
|  1> ! r2scan-3c def2/J RI DEFGRID2 scfconv6 printgap
|  2> %output
|  3>     printlevel normal
|  4> end
|  5> * xyz 0 1
|  6> C -4.528406141 -1.1124864286 -0.4140544625
|  7> C -3.7911778613 -2.2753768472 -0.2379912624
|  8> C -2.4279897909 -2.2045836783 -0.0185477728
|  9> C -1.7765206251 -0.9737662209 0.0259005111
| 10> C -2.52110177 0.1971453112 -0.1536885045
| 11> C -3.8955460771 0.1152166881 -0.3711052247
| 12> C -1.870759751 1.5125257843 -0.1161759996
| 13> O -2.5136425897 2.5512902167 -0.2567059188
| 14> C -0.4118082787 1.5279414162 0.0897277054
| 15> C 0.2053390525 2.7670931722 0.0812596238
| 16> C 1.5821561218 2.8680799589 0.2598698203
| 17> C 2.3363519261 1.7410785193 0.4469146623
| 18> C 1.7503528178 0.4508550147 0.4723377389
| 19> C 0.3369076307 0.3430278379 0.2838800687
| 20> C -0.3200264428 -0.9471651687 0.2722647028
| 21> O 0.27542896 -2.0227816141 0.4540129668
| 22> N 2.4945628224 -0.6396503775 0.6988121975
| 23> C 3.9324318798 -0.6907748352 0.761365481
| 24> C 4.5840191633 -0.6332148795 -0.6274688743
| 25> O 4.29164095 -1.8394347639 -1.3033989318
| 26> H -5.5922481825 -1.1648882094 -0.5839690019
| 27> H -4.2802245149 -3.2363090575 -0.2708430867
| 28> H -1.8370983491 -3.097395789 0.1233209469
| 29> H -4.4433908148 1.036376516 -0.5045150254
| 30> H -0.4064294947 3.6432452662 -0.0688926659
| 31> H 2.0528189403 3.8385932595 0.2482430523
| 32> H 3.4005187374 1.8358724872 0.5809374259
| 33> H 2.0035341188 -1.52615717 0.6085818187
| 34> H 4.2029294938 -1.6421707374 1.2203936127
| 35> H 4.3186252078 0.1216270102 1.3790841036
| 36> H 5.6680880434 -0.5154969986 -0.5044814123
| 37> H 4.1885741037 0.2241822018 -1.1869063703
| 38> H 4.684133209 -1.8225351506 -2.1853171788
| 39> *
| 40>
| 41>                          ****END OF INPUT****

CARTESIAN COORDINATES (ANGSTROEM)
---------------------------------
  C     -4.528406   -1.112486   -0.414054
  C     -3.791178   -2.275377   -0.237991
  C     -2.427990   -2.204584   -0.018548
  C     -1.776521   -0.973766    0.025901
  C     -2.521102    0.197145   -0.153689
  C     -3.895546    0.115217   -0.371105
  C     -1.870760    1.512526   -0.116176
  O     -2.513643    2.551290   -0.256706
  C     -0.411808    1.527941    0.089728
  C      0.205339    2.767093    0.081260
  C      1.582156    2.868080    0.259870
  C      2.336352    1.741079    0.446915
  C      1.750353    0.450855    0.472338
  C      0.336908    0.343028    0.283880
  C     -0.320026   -0.947165    0.272265
  O      0.275429   -2.022782    0.454013
  N      2.494563   -0.639650    0.698812
  C      3.932432   -0.690775    0.761365
  C      4.584019   -0.633215   -0.627469
  O      4.291641   -1.839435   -1.303399
  H     -5.592248   -1.164888   -0.583969
  H     -4.280225   -3.236309   -0.270843
  H     -1.837098   -3.097396    0.123321
  H     -4.443391    1.036377   -0.504515
  H     -0.406429    3.643245   -0.068893
  H      2.052819    3.838593    0.248243
  H      3.400519    1.835872    0.580937
  H      2.003534   -1.526157    0.608582
  H      4.202929   -1.642171    1.220394
  H      4.318625    0.121627    1.379084
  H      5.668088   -0.515497   -0.504481
  H      4.188574    0.224182   -1.186906
  H      4.684133   -1.822535   -2.185317

 Total Charge           Charge          ....    0
 Multiplicity           Mult            ....    1
 Number of Electrons    NEL             ....  140
 Basis Dimension        Dim             ....  465

ORBITAL ENERGIES
----------------

  NO   OCC          E(Eh)            E(eV)
   0   2.0000     -18.962854      -516.0055
   1   2.0000     -18.938467      -515.3419
   2   2.0000     -18.935620      -515.2644
   3   2.0000     -14.185556      -386.0086
   4   2.0000     -10.121236      -275.4128
   5   2.0000     -10.119732      -275.3719
   6   2.0000     -10.101543      -274.8770
   7   2.0000     -10.093833      -274.6671
   8   2.0000     -10.083051      -274.3738
   9   2.0000     -10.056828      -273.6602
  10   2.0000     -10.056561      -273.6529
  11   2.0000     -10.054949      -273.6091
  12   2.0000     -10.054485      -273.5965
  13   2.0000     -10.053939      -273.5816
  14   2.0000     -10.051579      -273.5174
  15   2.0000     -10.050643      -273.4919
  16   2.0000     -10.049915      -273.4721
  17   2.0000     -10.048049      -273.4213
  18   2.0000     -10.046902      -273.3901
  19   2.0000     -10.038899      -273.1723
  20   2.0000      -1.003359       -27.3028
  21   2.0000      -1.000202       -27.2169
  22   2.0000      -0.999487       -27.1974
  23   2.0000      -0.926150       -25.2018
  24   2.0000      -0.848282       -23.0829
  25   2.0000      -0.832086       -22.6422
  26   2.0000      -0.772318       -21.0158
  27   2.0000      -0.748185       -20.3592
  28   2.0000      -0.734651       -19.9909
  29   2.0000      -0.729979       -19.8637
  30   2.0000      -0.700460       -19.0605
  31   2.0000      -0.649503       -17.6739
  32   2.0000      -0.631026       -17.1711
  33   2.0000      -0.610940       -16.6245
  34   2.0000      -0.602079       -16.3834
  35   2.0000      -0.566670       -15.4199
  36   2.0000      -0.550258       -14.9733
  37   2.0000      -0.521118       -14.1803
  38   2.0000      -0.516292       -14.0490
  39   2.0000      -0.502316       -13.6687
  40   2.0000      -0.488003       -13.2792
  41   2.0000      -0.465132       -12.6569
  42   2.0000      -0.458077       -12.4649
  43   2.0000      -0.447443       -12.1755
  44   2.0000      -0.439850       -11.9689
  45   2.0000      -0.432336       -11.7645
  46   2.0000      -0.422430       -11.4949
  47   2.0000      -0.412192       -11.2163
  48   2.0000      -0.405151       -11.0247
  49   2.0000      -0.401344       -10.9211
  50   2.0000      -0.400716       -10.9040
  51   2.0000      -0.391615       -10.6564
  52   2.0000      -0.382454       -10.4071
  53   2.0000      -0.371305       -10.1037
  54   2.0000      -0.370319       -10.0769
  55   2.0000      -0.362664        -9.8686
  56   2.0000      -0.352086        -9.5808
  57   2.0000      -0.344481        -9.3738
  58   2.0000      -0.334670        -9.1068
  59   2.0000      -0.329329        -8.9615
  60   2.0000      -0.322421        -8.7735
  61   2.0000      -0.320452        -8.7200
  62   2.0000      -0.288797        -7.8586
  63   2.0000      -0.258838        -7.0433
  64   2.0000      -0.253525        -6.8988
  65   2.0000      -0.249098        -6.7783
  66   2.0000      -0.247780        -6.7424
  67   2.0000      -0.230954        -6.2846
  68   2.0000      -0.219456        -5.9717
  69   2.0000      -0.195316        -5.3148
  70   0.0000      -0.126823        -3.4510
  71   0.0000      -0.076743        -2.0883
  72   0.0000      -0.048090        -1.3086
  73   0.0000      -0.026747        -0.7278
  74   0.0000       0.025157         0.6846

MULLIKEN ATOMIC CHARGES
-----------------------
   0 C :   -0.132164
   1 C :   -0.127612
   2 C :   -0.225751
   3 C :    0.187190
   4 C :    0.137454
   5 C :   -0.217326
   6 C :    0.037603
   7 O :   -0.355092
   8 C :    0.203018
   9 C :   -0.255374
  10 C :   -0.140545
  11 C :   -0.321167
  12 C :    0.322384
  13 C :   -0.147793
  14 C :    0.017061
  15 O :   -0.436049
  16 N :   -0.031642
  17 C :   -0.338889
  18 C :   -0.080762
  19 O :   -0.423947
  20 H :    0.148689
  21 H :    0.148562
  22 H :    0.183055
  23 H :    0.181578
  24 H :    0.185097
  25 H :    0.146731
  26 H :    0.142255
  27 H :    0.320137
  28 H :    0.165542
  29 H :    0.150291
  30 H :    0.126151
  31 H :    0.132396
  32 H :    0.298918
Sum of atomic charges:   -0.0000000

LOEWDIN ATOMIC CHARGES
----------------------
   0 C :   -0.144294
   1 C :   -0.140453
   2 C :   -0.101445
   3 C :   -0.025007
   4 C :   -0.036266
   5 C :   -0.097641
   6 C :    0.269850
   7 O :   -0.480692
   8 C :   -0.023643
   9 C :   -0.125195
  10 C :   -0.128710
  11 C :   -0.145001
  12 C :    0.202101
  13 C :   -0.033334
  14 C :    0.270731
  15 O :   -0.530307
  16 N :   -0.662092
  17 C :   -0.019779
  18 C :    0.027132
  19 O :   -0.611197
  20 H :    0.170330
  21 H :    0.170330
  22 H :    0.193345
  23 H :    0.191544
  24 H :    0.193660
  25 H :    0.171444
  26 H :    0.173424
  27 H :    0.298369
  28 H :    0.197561
  29 H :    0.181476
  30 H :    0.158416
  31 H :    0.165586
  32 H :    0.269758

  Mayer bond orders larger than 0.100000
B(  0-C ,  1-C ) :   1.3215 B(  0-C ,  5-C ) :   1.3580 B(  0-C , 20-H ) :   0.9556
B(  1-C ,  2-C ) :   1.3494 B(  1-C , 21-H ) :   0.9558 B(  2-C ,  3-C ) :   1.3586
B(  2-C , 15-O ) :   0.1031 B(  2-C , 22-H ) :   0.9591 B(  3-C ,  4-C ) :   1.5192
B(  3-C , 14-C ) :   0.9160 B(  3-C , 15-O ) :  -0.2019 B(  4-C ,  5-C ) :   1.3487
B(  4-C ,  6-C ) :   0.8555 B(  4-C ,  7-O ) :  -0.2230 B(  5-C ,  7-O ) :   0.1084
B(  5-C , 23-H ) :   0.9634 B(  6-C ,  7-O ) :   2.0985 B(  6-C ,  8-C ) :   0.8640
B(  7-O ,  8-C ) :  -0.2156 B(  7-O ,  9-C ) :   0.1225 B(  8-C ,  9-C ) :   1.4011
B(  8-C , 13-C ) :   1.2751 B(  9-C , 10-C ) :   1.2554 B(  9-C , 24-H ) :   0.9661
B( 10-C , 11-C ) :   1.3934 B( 10-C , 25-H ) :   0.9653 B( 11-C , 12-C ) :   1.0961
B( 11-C , 26-H ) :   0.9517 B( 12-C , 13-C ) :   1.2503 B( 12-C , 14-C ) :  -0.1100
B( 12-C , 16-N ) :   1.2914 B( 13-C , 14-C ) :   0.9454 B( 13-C , 15-O ) :  -0.1266
B( 14-C , 15-O ) :   1.8918 B( 16-N , 17-C ) :   0.8630 B( 16-N , 27-H ) :   0.8294
B( 17-C , 18-C ) :   0.9249 B( 17-C , 28-H ) :   0.9578 B( 17-C , 29-H ) :   0.9727
B( 18-C , 19-O ) :   0.9294 B( 18-C , 30-H ) :   0.9631 B( 18-C , 31-H ) :   0.9617
B( 19-O , 32-H ) :   0.8969

Dispersion correction           -0.015695231
FINAL SINGLE POINT ENERGY      -897.784835185469

DIPOLE MOMENT
-------------

Method             : SCF
Type of density    : Electron Density
Multiplicity       :   1
Irrep              :   0
Energy             :  -897.7853540157373118 Eh
Relativity type    :
Basis              : AO
                                X                 Y                 Z
Electronic contribution:    -11.757016334       2.014842432       0.819304518
Nuclear contribution   :     13.140828576      -2.185464209      -1.086149950
                        -----------------------------------------
Total Dipole Moment    :      1.383812241      -0.170621776      -0.266845432
                        -----------------------------------------
Magnitude (a.u.)       :      1.419596631
Magnitude (Debye)      :      3.608327877

Rotational constants in cm-1:             0.020525             0.007797             0.005933
Rotational constants in MHz :           615.327452           233.748403           177.864031

                             ****ORCA TERMINATED NORMALLY****
TOTAL RUN TIME: 0 days 0 hours 2 minutes 9 seconds 791 msec
