                         Program Version 6.0.0  -   RELEASE  -
|  1> ! r2scan-3c def2/J RI DEFGRID2 scfconv6 printgap
|  2> %output
|  3>     printlevel normal
|  4> end
|  5> %cpcm
|  6>     smd true
|  7>     smdsolvent "water"
|  8> end
|  9> * xyz 0 1
| 10> C -4.528406141 -1.1124864286 -0.4140544625
| 11> C -3.7911778613 -2.2753768472 -0.2379912624
| 12> C -2.4279897909 -2.2045836783 -0.0185477728
| 13> C -1.7765206251 -0.9737662209 0.0259005111
| 14> C -2.52110177 0.1971453112 -0.1536885045
| 15> C -3.8955460771 0.1152166881 -0.3711052247
| 16> C -1.870759751 1.5125257843 -0.1161759996
| 17> O -2.5136425897 2.5512902167 -0.2567059188
| 18> C -0.4118082787 1.5279414162 0.0897277054
| 19> C 0.2053390525 2.7670931722 0.0812596238
| 20> C 1.5821561218 2.8680799589 0.2598698203
| 21> C 2.3363519261 1.7410785193 0.4469146623
| 22> C 1.7503528178 0.4508550147 0.4723377389
| 23> C 0.3369076307 0.3430278379 0.2838800687
| 24> C -0.3200264428 -0.9471651687 0.2722647028
| 25> O 0.27542896 -2.0227816141 0.4540129668
| 26> N 2.4945628224 -0.6396503775 0.6988121975
| 27> C 3.9324318798 -0.6907748352 0.761365481
| 28> C 4.5840191633 -0.6332148795 -0.6274688743
| 29> O 4.29164095 -1.8394347639 -1.3033989318
| 30> H -5.5922481825 -1.1648882094 -0.5839690019
| 31> H -4.2802245149 -3.2363090575 -0.2708430867
| 32> H -1.8370983491 -3.097395789 0.1233209469
| 33> H -4.4433908148 1.036376516 -0.5045150254
| 34> H -0.4064294947 3.6432452662 -0.0688926659
| 35> H 2.0528189403 3.8385932595 0.2482430523
| 36> H 3.4005187374 1.8358724872 0.5809374259
| 37> H 2.0035341188 -1.52615717 0.6085818187
| 38> H 4.2029294938 -1.6421707374 1.2203936127
| 39> H 4.3186252078 0.1216270102 1.3790841036
| 40> H 5.6680880434 -0.5154969986 -0.5044814123
| 41> H 4.1885741037 0.2241822018 -1.1869063703
| 42> H 4.684133209 -1.8225351506 -2.1853171788
| 43> *
| 44>
| 45>                          ****END OF INPUT****

CARTESIAN COORDINATES (ANGSTROEM)
---------------------------------
  C     -4.528406   -1.112486   -0.414054
  C     -3.791178   -2.275377   -0.237991
  C     -2.427990   -2.204584   -0.018548
  C     -1.776521   -0.973766    0.025901
  C     -2.521102    0.197145   -0.153689
  C     -3.895546    0.115217   -0.371105
  C     -1.870760    1.512526   -0.116176
  O     -2.513643    2.551290   -0.256706
  C     -0.411808    1.527941    0.089728
  C      0.205339    2.767093    0.081260
  C      1.582156    2.868080    0.259870
  C      2.336352    1.741079    0.446915
  C      1.750353    0.450855    0.472338
  C      0.336908    0.343028    0.283880
  C     -0.320026   -0.947165    0.272265
  O      0.275429   -2.022782    0.454013
  N      2.494563   -0.639650    0.698812
  C      3.932432   -0.690775    0.761365
  C      4.584019   -0.633215   -0.627469
  O      4.291641   -1.839435   -1.303399
  H     -5.592248   -1.164888   -0.583969
  H     -4.280225   -3.236309   -0.270843
  H     -1.837098   -3.097396    0.123321
  H     -4.443391    1.036377   -0.504515
  H     -0.406429    3.643245   -0.068893
  H      2.052819    3.838593    0.248243
  H      3.400519    1.835872    0.580937
  H      2.003534   -1.526157    0.608582
  H      4.202929   -1.642171    1.220394
  H      4.318625    0.121627    1.379084
  H      5.668088   -0.515497   -0.504481
  H      4.188574    0.224182   -1.186906
  H      4.684133   -1.822535   -2.185317

 Total Charge           Charge          ....    0
 Multiplicity           Mult            ....    1
 Number of Electrons    NEL             ....  140
 Basis Dimension        Dim             ....  465

ORBITAL ENERGIES
----------------

  NO   OCC          E(Eh)            E(eV)
   0   2.0000     -18.953940      -515.7629
   1   2.0000     -18.949030      -515.6293
   2   2.0000     -18.946609      -515.5635
   3   2.0000     -14.184821      -385.9886
   4   2.0000     -10.131842      -275.7014
   5   2.0000     -10.127868      -275.5933
   6   2.0000     -10.101155      -274.8664
   7   2.0000     -10.075970      -274.1811
   8   2.0000     -10.065485      -273.8958
   9   2.0000     -10.060204      -273.7521
  10   2.0000     -10.060160      -273.7509
  11   2.0000     -10.058368      -273.7021
  12   2.0000     -10.056794      -273.6593
  13   2.0000     -10.050218      -273.4803
  14   2.0000     -10.050005      -273.4745
  15   2.0000     -10.049767      -273.4681
  16   2.0000     -10.048350      -273.4295
  17   2.0000     -10.048098      -273.4227
  18   2.0000     -10.046392      -273.3762
  19   2.0000     -10.042131      -273.2603
  20   2.0000      -1.016004       -27.6469
  21   2.0000      -1.011975       -27.5372
  22   2.0000      -0.990464       -26.9519
  23   2.0000      -0.923490       -25.1294
  24   2.0000      -0.851273       -23.1643
  25   2.0000      -0.832867       -22.6635
  26   2.0000      -0.773110       -21.0374
  27   2.0000      -0.742619       -20.2077
  28   2.0000      -0.737020       -20.0553
  29   2.0000      -0.730168       -19.8689
  30   2.0000      -0.694071       -18.8866
  31   2.0000      -0.652193       -17.7471
  32   2.0000      -0.628351       -17.0983
  33   2.0000      -0.609537       -16.5864
  34   2.0000      -0.595774       -16.2118
  35   2.0000      -0.564394       -15.3579
  36   2.0000      -0.551398       -15.0043
  37   2.0000      -0.520969       -14.1763
  38   2.0000      -0.512526       -13.9466
  39   2.0000      -0.495571       -13.4852
  40   2.0000      -0.480505       -13.0752
  41   2.0000      -0.463416       -12.6102
  42   2.0000      -0.459747       -12.5104
  43   2.0000      -0.444342       -12.0912
  44   2.0000      -0.436121       -11.8675
  45   2.0000      -0.430423       -11.7124
  46   2.0000      -0.423389       -11.5210
  47   2.0000      -0.416754       -11.3405
  48   2.0000      -0.409512       -11.1434
  49   2.0000      -0.406345       -11.0572
  50   2.0000      -0.399173       -10.8621
  51   2.0000      -0.392827       -10.6894
  52   2.0000      -0.382121       -10.3980
  53   2.0000      -0.379087       -10.3155
  54   2.0000      -0.363860        -9.9011
  55   2.0000      -0.357258        -9.7215
  56   2.0000      -0.346004        -9.4152
  57   2.0000      -0.344335        -9.3698
  58   2.0000      -0.338132        -9.2010
  59   2.0000      -0.328923        -8.9504
  60   2.0000      -0.322297        -8.7701
  61   2.0000      -0.317376        -8.6362
  62   2.0000      -0.286787        -7.8039
  63   2.0000      -0.264823        -7.2062
  64   2.0000      -0.252022        -6.8579
  65   2.0000      -0.251621        -6.8469
  66   2.0000      -0.245715        -6.6863
  67   2.0000      -0.243878        -6.6363
  68   2.0000      -0.230652        -6.2764
  69   2.0000      -0.196076        -5.3355
  70   0.0000      -0.133768        -3.6400
  71   0.0000      -0.080456        -2.1893
  72   0.0000      -0.048867        -1.3297
  73   0.0000      -0.028373        -0.7721
  74   0.0000       0.024247         0.6598

MULLIKEN ATOMIC CHARGES
-----------------------
   0 C :   -0.169300
   1 C :   -0.158739
   2 C :   -0.241009
   3 C :    0.195025
   4 C :    0.137644
   5 C :   -0.228545
   6 C :    0.081169
   7 O :   -0.441031
   8 C :    0.192133
   9 C :   -0.257541
  10 C :   -0.185020
  11 C :   -0.297420
  12 C :    0.301365
  13 C :   -0.150197
  14 C :    0.031665
  15 O :   -0.500923
  16 N :   -0.058378
  17 C :   -0.335341
  18 C :   -0.099963
  19 O :   -0.504567
  20 H :    0.185361
  21 H :    0.185569
  22 H :    0.197423
  23 H :    0.195899
  24 H :    0.197396
  25 H :    0.184001
  26 H :    0.185553
  27 H :    0.345082
  28 H :    0.184118
  29 H :    0.180853
  30 H :    0.150129
  31 H :    0.148449
  32 H :    0.349139
Sum of atomic charges:   -0.0000000

LOEWDIN ATOMIC CHARGES
----------------------
   0 C :   -0.139078
   1 C :   -0.132096
   2 C :   -0.108136
   3 C :   -0.027651
   4 C :   -0.042337
   5 C :   -0.101885
   6 C :    0.276640
   7 O :   -0.548957
   8 C :   -0.032272
   9 C :   -0.126196
  10 C :   -0.124735
  11 C :   -0.122767
  12 C :    0.201072
  13 C :   -0.039204
  14 C :    0.271028
  15 O :   -0.580366
  16 N :   -0.658937
  17 C :   -0.015999
  18 C :    0.035355
  19 O :   -0.646140
  20 H :    0.184324
  21 H :    0.184527
  22 H :    0.196772
  23 H :    0.195036
  24 H :    0.195999
  25 H :    0.186204
  26 H :    0.192303
  27 H :    0.298416
  28 H :    0.202948
  29 H :    0.196096
  30 H :    0.170186
  31 H :    0.172658
  32 H :    0.287193

  Mayer bond orders larger than 0.100000
B(  0-C ,  1-C ) :   1.3099 B(  0-C ,  5-C ) :   1.3539 B(  0-C , 20-H ) :   0.9603
B(  1-C ,  2-C ) :   1.3399 B(  1-C , 21-H ) :   0.9603 B(  2-C ,  3-C ) :   1.3004
B(  2-C , 15-O ) :   0.1003 B(  2-C , 22-H ) :   0.9720 B(  3-C ,  4-C ) :   1.5070
B(  3-C , 14-C ) :   0.9104 B(  3-C , 15-O ) :  -0.2015 B(  4-C ,  5-C ) :   1.2879
B(  4-C ,  6-C ) :   0.8647 B(  4-C ,  7-O ) :  -0.2227 B(  5-C ,  7-O ) :   0.1042
B(  5-C , 23-H ) :   0.9740 B(  6-C ,  7-O ) :   2.0584 B(  6-C ,  8-C ) :   0.8751
B(  7-O ,  8-C ) :  -0.2141 B(  7-O ,  9-C ) :   0.1210 B(  8-C ,  9-C ) :   1.3344
B(  8-C , 13-C ) :   1.2605 B(  9-C , 10-C ) :   1.2329 B(  9-C , 24-H ) :   0.9798
B( 10-C , 11-C ) :   1.3870 B( 10-C , 25-H ) :   0.9757 B( 11-C , 12-C ) :   1.0945
B( 11-C , 26-H ) :   0.9565 B( 12-C , 13-C ) :   1.2128 B( 12-C , 14-C ) :  -0.1004
B( 12-C , 16-N ) :   1.3032 B( 13-C , 14-C ) :   0.9616 B( 13-C , 15-O ) :  -0.1355
B( 14-C , 15-O ) :   1.8744 B( 16-N , 17-C ) :   0.8526 B( 16-N , 27-H ) :   0.8242
B( 17-C , 18-C ) :   0.9070 B( 17-C , 28-H ) :   0.9558 B( 17-C , 29-H ) :   0.9595
B( 18-C , 19-O ) :   0.9134 B( 18-C , 30-H ) :   0.9645 B( 18-C , 31-H ) :   0.9615
B( 19-O , 32-H ) :   0.8718

Dispersion correction           -0.015695231
FINAL SINGLE POINT ENERGY      -897.805888494881

DIPOLE MOMENT
-------------

Method             : SCF
Type of density    : Electron Density
Multiplicity       :   1
Irrep              :   0
Energy             :  -897.8064073251491664 Eh
Relativity type    :
Basis              : AO
                                X                 Y                 Z
Electronic contribution:    -10.992385610       2.130739972       0.802566745
Nuclear contribution   :     13.140828576      -2.185464209      -1.086149950
                        -----------------------------------------
Total Dipole Moment    :      2.148442965      -0.054724237      -0.283583205
                        -----------------------------------------
Magnitude (a.u.)       :      2.167768749
Magnitude (Debye)      :      5.510030272

Rotational constants in cm-1:             0.020525             0.007797             0.005933
Rotational constants in MHz :           615.327452           233.748403           177.864031

                             ****ORCA TERMINATED NORMALLY****
TOTAL RUN TIME: 0 days 0 hours 2 minutes 41 seconds 160 msec
