                         Program Version 6.0.1  -  RELEASE   -
|  1> ! pbe def2-sv(p) def2/J RI DEFGRID1 loosescf d4 GCP(DFT/SV(P)) printgap
|  2> %output
|  3>     printlevel normal
|  4> end
|  5> * xyz 0 1
|  6> C -3.815104855 0.9269500751 -1.6283787404
|  7> C -3.3078645195 -0.1267828762 -0.6422876365
|  8> H -3.5660091895 -1.128174984 -0.9971778299
|  9> C -1.8086361055 -0.0504902502 -0.4535826326
| 10> C -1.1957266467 1.1146308877 -0.0058521396
| 11> C 0.1738627472 1.1748210882 0.1570452919
| 12> C 0.9905113564 0.0759848116 -0.1086607723
| 13> C 0.350118577 -1.0767447756 -0.5496539968
| 14> C -1.0165809809 -1.1570678349 -0.7251750533
| 15> F 1.0868809838 -2.185864296 -0.8564101924
| 16> C 2.4487277242 0.1540863057 0.0714980202
| 17> C 3.1498097152 -0.8658083959 0.7091974361
| 18> C 4.5189350106 -0.7715060816 0.8807586303
| 19> C 5.205549 0.3376782638 0.4160287018
| 20> C 4.5156167266 1.3566254661 -0.2203195925
| 21> C 3.1465359182 1.268559274 -0.3892262426
| 22> C -3.9315815968 0.0240213103 0.7325323983
| 23> O -4.2578917179 -0.9189885075 1.4231328076
| 24> O -4.055698241 1.2749054059 1.1264009156
| 25> H -4.8852867891 0.8111094836 -1.7777294885
| 26> H -3.6210551618 1.9281364559 -1.2580598725
| 27> H -3.3111423688 0.7989586331 -2.582096436
| 28> H -1.7960320917 1.9799872132 0.2251783432
| 29> H 0.6317301959 2.0827795331 0.5167029371
| 30> H -1.4449826707 -2.0829855704 -1.0752267674
| 31> H 2.6200198263 -1.7298178355 1.0823569724
| 32> H 5.0503726703 -1.5678700041 1.3797302108
| 33> H 6.2744909857 0.4068058717 0.5484387305
| 34> H 5.0468087338 2.2216725931 -0.5875540955
| 35> H 2.6125458364 2.0560548117 -0.8992767329
| 36> H -4.4352314225 1.3547513449 2.0232320613
| 37> *
| 38>
| 39>                          ****END OF INPUT****

CARTESIAN COORDINATES (ANGSTROEM)
---------------------------------
  C     -3.815105    0.926950   -1.628379
  C     -3.307865   -0.126783   -0.642288
  H     -3.566009   -1.128175   -0.997178
  C     -1.808636   -0.050490   -0.453583
  C     -1.195727    1.114631   -0.005852
  C      0.173863    1.174821    0.157045
  C      0.990511    0.075985   -0.108661
  C      0.350119   -1.076745   -0.549654
  C     -1.016581   -1.157068   -0.725175
  F      1.086881   -2.185864   -0.856410
  C      2.448728    0.154086    0.071498
  C      3.149810   -0.865808    0.709197
  C      4.518935   -0.771506    0.880759
  C      5.205549    0.337678    0.416029
  C      4.515617    1.356625   -0.220320
  C      3.146536    1.268559   -0.389226
  C     -3.931582    0.024021    0.732532
  O     -4.257892   -0.918989    1.423133
  O     -4.055698    1.274905    1.126401
  H     -4.885287    0.811109   -1.777729
  H     -3.621055    1.928136   -1.258060
  H     -3.311142    0.798959   -2.582096
  H     -1.796032    1.979987    0.225178
  H      0.631730    2.082780    0.516703
  H     -1.444983   -2.082986   -1.075227
  H      2.620020   -1.729818    1.082357
  H      5.050373   -1.567870    1.379730
  H      6.274491    0.406806    0.548439
  H      5.046809    2.221673   -0.587554
  H      2.612546    2.056055   -0.899277
  H     -4.435231    1.354751    2.023232

 Total Charge           Charge          ....    0
 Multiplicity           Mult            ....    1
 Number of Electrons    NEL             ....  128
 Basis Dimension        Dim             ....  278

ORBITAL ENERGIES
----------------

  NO   OCC          E(Eh)            E(eV)
   0   2.0000     -24.269909      -660.4178
   1   2.0000     -18.810142      -511.8500
   2   2.0000     -18.739505      -509.9279
   3   2.0000     -10.017920      -272.6015
   4   2.0000      -9.976201      -271.4662
   5   2.0000      -9.920590      -269.9530
   6   2.0000      -9.918666      -269.9006
   7   2.0000      -9.912130      -269.7228
   8   2.0000      -9.908818      -269.6327
   9   2.0000      -9.903937      -269.4998
  10   2.0000      -9.901252      -269.4268
  11   2.0000      -9.897431      -269.3228
  12   2.0000      -9.895697      -269.2756
  13   2.0000      -9.895031      -269.2575
  14   2.0000      -9.894260      -269.2365
  15   2.0000      -9.893927      -269.2274
  16   2.0000      -9.893623      -269.2192
  17   2.0000      -9.890895      -269.1449
  18   2.0000      -1.094540       -29.7840
  19   2.0000      -1.018746       -27.7215
  20   2.0000      -0.915193       -24.9037
  21   2.0000      -0.800483       -21.7822
  22   2.0000      -0.779584       -21.2136
  23   2.0000      -0.741352       -20.1732
  24   2.0000      -0.698379       -19.0039
  25   2.0000      -0.678481       -18.4624
  26   2.0000      -0.672331       -18.2951
  27   2.0000      -0.649326       -17.6691
  28   2.0000      -0.611568       -16.6416
  29   2.0000      -0.582835       -15.8598
  30   2.0000      -0.567178       -15.4337
  31   2.0000      -0.545361       -14.8400
  32   2.0000      -0.538944       -14.6654
  33   2.0000      -0.526306       -14.3215
  34   2.0000      -0.489354       -13.3160
  35   2.0000      -0.466618       -12.6973
  36   2.0000      -0.455256       -12.3882
  37   2.0000      -0.439715       -11.9652
  38   2.0000      -0.429390       -11.6843
  39   2.0000      -0.421558       -11.4712
  40   2.0000      -0.417234       -11.3535
  41   2.0000      -0.409596       -11.1457
  42   2.0000      -0.399368       -10.8674
  43   2.0000      -0.398152       -10.8343
  44   2.0000      -0.392398       -10.6777
  45   2.0000      -0.384014       -10.4496
  46   2.0000      -0.375747       -10.2246
  47   2.0000      -0.364732        -9.9249
  48   2.0000      -0.360324        -9.8049
  49   2.0000      -0.347696        -9.4613
  50   2.0000      -0.342890        -9.3305
  51   2.0000      -0.337058        -9.1718
  52   2.0000      -0.326436        -8.8828
  53   2.0000      -0.318946        -8.6790
  54   2.0000      -0.317066        -8.6278
  55   2.0000      -0.312259        -8.4970
  56   2.0000      -0.302729        -8.2377
  57   2.0000      -0.293198        -7.9783
  58   2.0000      -0.277084        -7.5398
  59   2.0000      -0.253941        -6.9101
  60   2.0000      -0.232150        -6.3171
  61   2.0000      -0.230078        -6.2607
  62   2.0000      -0.224494        -6.1088
  63   2.0000      -0.206306        -5.6139
  64   0.0000      -0.064858        -1.7649
  65   0.0000      -0.040634        -1.1057
  66   0.0000      -0.036724        -0.9993
  67   0.0000      -0.027469        -0.7475
  68   0.0000      -0.007848        -0.2136

MULLIKEN ATOMIC CHARGES
-----------------------
   0 C :   -0.227376
   1 C :   -0.127802
   2 H :    0.083981
   3 C :    0.117758
   4 C :   -0.109482
   5 C :   -0.113414
   6 C :    0.030861
   7 C :    0.265558
   8 C :   -0.225073
   9 F :   -0.171580
  10 C :    0.112101
  11 C :   -0.096553
  12 C :   -0.052448
  13 C :   -0.045219
  14 C :   -0.049333
  15 C :   -0.111350
  16 C :    0.112557
  17 O :   -0.182875
  18 O :   -0.285788
  19 H :    0.109669
  20 H :    0.122650
  21 H :    0.110851
  22 H :    0.052736
  23 H :    0.049481
  24 H :    0.047288
  25 H :    0.051750
  26 H :    0.054684
  27 H :    0.054885
  28 H :    0.053058
  29 H :    0.047951
  30 H :    0.320474
Sum of atomic charges:    0.0000000

LOEWDIN ATOMIC CHARGES
----------------------
   0 C :   -0.320884
   1 C :   -0.148765
   2 H :    0.137939
   3 C :   -0.020854
   4 C :   -0.130576
   5 C :   -0.102558
   6 C :   -0.055317
   7 C :    0.081817
   8 C :   -0.142536
   9 F :   -0.054682
  10 C :   -0.028314
  11 C :   -0.107939
  12 C :   -0.119779
  13 C :   -0.122215
  14 C :   -0.121123
  15 C :   -0.114271
  16 C :    0.033120
  17 O :   -0.166561
  18 O :   -0.192868
  19 H :    0.124518
  20 H :    0.125073
  21 H :    0.126583
  22 H :    0.126431
  23 H :    0.129194
  24 H :    0.137065
  25 H :    0.126393
  26 H :    0.125173
  27 H :    0.124137
  28 H :    0.124410
  29 H :    0.124956
  30 H :    0.302430

  Mayer bond orders larger than 0.100000
B(  0-C ,  1-C ) :   1.0888 B(  0-C , 19-H ) :   0.9501 B(  0-C , 20-H ) :   0.9364
B(  0-C , 21-H ) :   0.9463 B(  1-C ,  2-H ) :   0.8779 B(  1-C ,  3-C ) :   1.0012
B(  1-C , 16-C ) :   0.9380 B(  3-C ,  4-C ) :   1.3524 B(  3-C ,  8-C ) :   1.3374
B(  4-C ,  5-C ) :   1.3574 B(  4-C , 22-H ) :   0.9548 B(  5-C ,  6-C ) :   1.3560
B(  5-C , 23-H ) :   0.9589 B(  6-C ,  7-C ) :   1.3439 B(  6-C , 10-C ) :   0.9728
B(  7-C ,  8-C ) :   1.3288 B(  7-C ,  9-F ) :   1.1042 B(  8-C , 24-H ) :   0.9652
B( 10-C , 11-C ) :   1.3786 B( 10-C , 15-C ) :   1.3789 B( 11-C , 12-C ) :   1.3754
B( 11-C , 25-H ) :   0.9607 B( 12-C , 13-C ) :   1.3742 B( 12-C , 26-H ) :   0.9631
B( 13-C , 14-C ) :   1.3764 B( 13-C , 27-H ) :   0.9655 B( 14-C , 15-C ) :   1.3717
B( 14-C , 28-H ) :   0.9637 B( 15-C , 29-H ) :   0.9586 B( 16-C , 17-O ) :   2.1352
B( 16-C , 18-O ) :   1.2544 B( 18-O , 30-H ) :   0.8160

Dispersion correction           -0.040101304
FINAL SINGLE POINT ENERGY      -828.016253931260

DIPOLE MOMENT
-------------

Method             : SCF
Type of density    : Electron Density
Multiplicity       :   1
Irrep              :   0
Energy             :  -828.1063508019738038 Eh
Relativity type    :
Basis              : AO
                                X                 Y                 Z
Electronic contribution:      1.752668605      -7.700570393       2.309363829
Nuclear contribution   :     -1.902956953       8.720992391      -2.359944315
                        -----------------------------------------
Total Dipole Moment    :     -0.150288348       1.020421998      -0.050580485
                        -----------------------------------------
Magnitude (a.u.)       :      1.032669369
Magnitude (Debye)      :      2.624836937

Rotational constants in cm-1:             0.036492             0.006404             0.006095
Rotational constants in MHz :          1093.988387           191.975080           182.719655

                             ****ORCA TERMINATED NORMALLY****
TOTAL RUN TIME: 0 days 0 hours 0 minutes 34 seconds 951 msec
