                         Program Version 6.0.0  -   RELEASE  -
|  1> ! r2scan-3c def2/J RI DEFGRID2 scfconv6 printgap
|  2> %output
|  3>     printlevel normal
|  4> end
|  5> * xyz 0 1
|  6> C -2.5070649707 -1.0769512829 -0.6240958341
|  7> C -2.0514997507 -0.5538423838 0.7326911277
|  8> C -1.3894511567 0.8249178601 0.6164783857
|  9> C -0.1144928602 0.7523921464 -0.1833042746
| 10> O 0.0850538687 1.3342208162 -1.2311054487
| 11> O 0.7874279094 -0.0285220812 0.3929188766
| 12> C 2.0530791169 -0.1913887487 -0.2669657271
| 13> C 2.9652393886 -0.9861211851 0.6471817219
| 14> H -2.9630783241 -2.0578051712 -0.5198637081
| 15> H -3.2347552022 -0.4020082257 -1.0685343403
| 16> H -1.6638873841 -1.1589021828 -1.3077910707
| 17> H -1.3403792735 -1.2501227279 1.1789586947
| 18> H -2.9119496973 -0.4700566628 1.3972179746
| 19> H -1.1379703502 1.1906598251 1.6125551013
| 20> H -2.0577343916 1.5322716958 0.1256289588
| 21> H 1.883253194 -0.7067578556 -1.2182164322
| 22> H 2.4591145532 0.8016458674 -0.4868448164
| 23> H 3.9297815814 -1.1154288723 0.1675971006
| 24> H 3.0995509582 -0.4597750795 1.5875228648
| 25> H 2.5317480819 -1.9608019529 0.8499714859
| 26> *
| 27>
| 28>                          ****END OF INPUT****

CARTESIAN COORDINATES (ANGSTROEM)
---------------------------------
  C     -2.507065   -1.076951   -0.624096
  C     -2.051500   -0.553842    0.732691
  C     -1.389451    0.824918    0.616478
  C     -0.114493    0.752392   -0.183304
  O      0.085054    1.334221   -1.231105
  O      0.787428   -0.028522    0.392919
  C      2.053079   -0.191389   -0.266966
  C      2.965239   -0.986121    0.647182
  H     -2.963078   -2.057805   -0.519864
  H     -3.234755   -0.402008   -1.068534
  H     -1.663887   -1.158902   -1.307791
  H     -1.340379   -1.250123    1.178959
  H     -2.911950   -0.470057    1.397218
  H     -1.137970    1.190660    1.612555
  H     -2.057734    1.532272    0.125629
  H      1.883253   -0.706758   -1.218216
  H      2.459115    0.801646   -0.486845
  H      3.929782   -1.115429    0.167597
  H      3.099551   -0.459775    1.587523
  H      2.531748   -1.960802    0.849971

 Total Charge           Charge          ....    0
 Multiplicity           Mult            ....    1
 Number of Electrons    NEL             ....   64
 Basis Dimension        Dim             ....  222

ORBITAL ENERGIES
----------------

  NO   OCC          E(Eh)            E(eV)
   0   2.0000     -18.996235      -516.9138
   1   2.0000     -18.926289      -515.0105
   2   2.0000     -10.150102      -276.1983
   3   2.0000     -10.092004      -274.6174
   4   2.0000     -10.040563      -273.2176
   5   2.0000     -10.036596      -273.1097
   6   2.0000     -10.032398      -272.9954
   7   2.0000     -10.019617      -272.6476
   8   2.0000      -1.071979       -29.1700
   9   2.0000      -0.972759       -26.4701
  10   2.0000      -0.776148       -21.1201
  11   2.0000      -0.741810       -20.1857
  12   2.0000      -0.677741       -18.4423
  13   2.0000      -0.615669       -16.7532
  14   2.0000      -0.569809       -15.5053
  15   2.0000      -0.533980       -14.5303
  16   2.0000      -0.471211       -12.8223
  17   2.0000      -0.453658       -12.3447
  18   2.0000      -0.439867       -11.9694
  19   2.0000      -0.424244       -11.5443
  20   2.0000      -0.410261       -11.1638
  21   2.0000      -0.379444       -10.3252
  22   2.0000      -0.378114       -10.2890
  23   2.0000      -0.370858       -10.0916
  24   2.0000      -0.355272        -9.6674
  25   2.0000      -0.334562        -9.1039
  26   2.0000      -0.327210        -8.9038
  27   2.0000      -0.312844        -8.5129
  28   2.0000      -0.310304        -8.4438
  29   2.0000      -0.308810        -8.4032
  30   2.0000      -0.270909        -7.3718
  31   2.0000      -0.230219        -6.2646
  32   0.0000      -0.014601        -0.3973
  33   0.0000       0.070624         1.9218
  34   0.0000       0.094831         2.5805
  35   0.0000       0.114362         3.1119
  36   0.0000       0.120200         3.2708

MULLIKEN ATOMIC CHARGES
-----------------------
   0 C :   -0.479864
   1 C :   -0.228926
   2 C :   -0.314202
   3 C :    0.345421
   4 O :   -0.416880
   5 O :   -0.160088
   6 C :   -0.145616
   7 C :   -0.442714
   8 H :    0.147129
   9 H :    0.149042
  10 H :    0.154904
  11 H :    0.152185
  12 H :    0.145518
  13 H :    0.158429
  14 H :    0.169558
  15 H :    0.153084
  16 H :    0.161642
  17 H :    0.147345
  18 H :    0.152740
  19 H :    0.151292
Sum of atomic charges:   -0.0000000

LOEWDIN ATOMIC CHARGES
----------------------
   0 C :   -0.414691
   1 C :   -0.293534
   2 C :   -0.231209
   3 C :    0.348823
   4 O :   -0.425218
   5 O :   -0.602651
   6 C :    0.034206
   7 C :   -0.386723
   8 H :    0.151624
   9 H :    0.153339
  10 H :    0.156083
  11 H :    0.163541
  12 H :    0.153072
  13 H :    0.179106
  14 H :    0.177450
  15 H :    0.177171
  16 H :    0.181725
  17 H :    0.159639
  18 H :    0.159467
  19 H :    0.158782

  Mayer bond orders larger than 0.100000
B(  0-C ,  1-C ) :   0.9136 B(  0-C ,  8-H ) :   0.9703 B(  0-C ,  9-H ) :   0.9780
B(  0-C , 10-H ) :   0.9708 B(  1-C ,  2-C ) :   0.8853 B(  1-C , 11-H ) :   0.9730
B(  1-C , 12-H ) :   0.9643 B(  2-C ,  3-C ) :   0.9556 B(  2-C , 13-H ) :   0.9468
B(  2-C , 14-H ) :   1.0044 B(  3-C ,  4-O ) :   1.8299 B(  3-C ,  5-O ) :   1.0544
B(  5-O ,  6-C ) :   0.8075 B(  6-C ,  7-C ) :   0.9415 B(  6-C , 15-H ) :   0.9498
B(  6-C , 16-H ) :   0.9576 B(  7-C , 17-H ) :   0.9682 B(  7-C , 18-H ) :   0.9735
B(  7-C , 19-H ) :   0.9710

Dispersion correction           -0.005100436
FINAL SINGLE POINT ENERGY      -386.235939227563

DIPOLE MOMENT
-------------

Method             : SCF
Type of density    : Electron Density
Multiplicity       :   1
Irrep              :   0
Energy             :  -386.2424716190927825 Eh
Relativity type    :
Basis              : AO
                                X                 Y                 Z
Electronic contribution:      1.486362078       5.066637022      -1.483363120
Nuclear contribution   :     -1.306412391      -5.663190889       2.162430972
                        -----------------------------------------
Total Dipole Moment    :      0.179949687      -0.596553867       0.679067851
                        -----------------------------------------
Magnitude (a.u.)       :      0.921624410
Magnitude (Debye)      :      2.342583082

Rotational constants in cm-1:             0.110182             0.037945             0.033649
Rotational constants in MHz :          3303.185330          1137.553227          1008.784864

                             ****ORCA TERMINATED NORMALLY****
TOTAL RUN TIME: 0 days 0 hours 0 minutes 27 seconds 880 msec
