                         Program Version 6.0.0  -   RELEASE  -
|  1> ! r2scan-3c def2/J RI DEFGRID2 scfconv6 printgap
|  2> %output
|  3>     printlevel normal
|  4> end
|  5> %cpcm
|  6>     smd true
|  7>     smdsolvent "water"
|  8> end
|  9> * xyz 0 1
| 10> C -2.5070649707 -1.0769512829 -0.6240958341
| 11> C -2.0514997507 -0.5538423838 0.7326911277
| 12> C -1.3894511567 0.8249178601 0.6164783857
| 13> C -0.1144928602 0.7523921464 -0.1833042746
| 14> O 0.0850538687 1.3342208162 -1.2311054487
| 15> O 0.7874279094 -0.0285220812 0.3929188766
| 16> C 2.0530791169 -0.1913887487 -0.2669657271
| 17> C 2.9652393886 -0.9861211851 0.6471817219
| 18> H -2.9630783241 -2.0578051712 -0.5198637081
| 19> H -3.2347552022 -0.4020082257 -1.0685343403
| 20> H -1.6638873841 -1.1589021828 -1.3077910707
| 21> H -1.3403792735 -1.2501227279 1.1789586947
| 22> H -2.9119496973 -0.4700566628 1.3972179746
| 23> H -1.1379703502 1.1906598251 1.6125551013
| 24> H -2.0577343916 1.5322716958 0.1256289588
| 25> H 1.883253194 -0.7067578556 -1.2182164322
| 26> H 2.4591145532 0.8016458674 -0.4868448164
| 27> H 3.9297815814 -1.1154288723 0.1675971006
| 28> H 3.0995509582 -0.4597750795 1.5875228648
| 29> H 2.5317480819 -1.9608019529 0.8499714859
| 30> *
| 31>
| 32>                          ****END OF INPUT****

CARTESIAN COORDINATES (ANGSTROEM)
---------------------------------
  C     -2.507065   -1.076951   -0.624096
  C     -2.051500   -0.553842    0.732691
  C     -1.389451    0.824918    0.616478
  C     -0.114493    0.752392   -0.183304
  O      0.085054    1.334221   -1.231105
  O      0.787428   -0.028522    0.392919
  C      2.053079   -0.191389   -0.266966
  C      2.965239   -0.986121    0.647182
  H     -2.963078   -2.057805   -0.519864
  H     -3.234755   -0.402008   -1.068534
  H     -1.663887   -1.158902   -1.307791
  H     -1.340379   -1.250123    1.178959
  H     -2.911950   -0.470057    1.397218
  H     -1.137970    1.190660    1.612555
  H     -2.057734    1.532272    0.125629
  H      1.883253   -0.706758   -1.218216
  H      2.459115    0.801646   -0.486845
  H      3.929782   -1.115429    0.167597
  H      3.099551   -0.459775    1.587523
  H      2.531748   -1.960802    0.849971

 Total Charge           Charge          ....    0
 Multiplicity           Mult            ....    1
 Number of Electrons    NEL             ....   64
 Basis Dimension        Dim             ....  222

ORBITAL ENERGIES
----------------

  NO   OCC          E(Eh)            E(eV)
   0   2.0000     -19.002293      -517.0787
   1   2.0000     -18.943497      -515.4788
   2   2.0000     -10.161750      -276.5153
   3   2.0000     -10.084266      -274.4068
   4   2.0000     -10.035538      -273.0809
   5   2.0000     -10.028667      -272.8939
   6   2.0000     -10.018853      -272.6269
   7   2.0000     -10.011738      -272.4333
   8   2.0000      -1.079796       -29.3827
   9   2.0000      -0.987811       -26.8797
  10   2.0000      -0.771477       -20.9929
  11   2.0000      -0.733708       -19.9652
  12   2.0000      -0.671995       -18.2859
  13   2.0000      -0.609014       -16.5721
  14   2.0000      -0.563770       -15.3410
  15   2.0000      -0.532407       -14.4875
  16   2.0000      -0.470243       -12.7960
  17   2.0000      -0.454319       -12.3627
  18   2.0000      -0.450699       -12.2642
  19   2.0000      -0.420512       -11.4427
  20   2.0000      -0.405518       -11.0347
  21   2.0000      -0.376184       -10.2365
  22   2.0000      -0.372820       -10.1449
  23   2.0000      -0.363608        -9.8943
  24   2.0000      -0.348940        -9.4951
  25   2.0000      -0.329221        -8.9586
  26   2.0000      -0.321901        -8.7594
  27   2.0000      -0.312373        -8.5001
  28   2.0000      -0.306758        -8.3473
  29   2.0000      -0.302119        -8.2211
  30   2.0000      -0.276475        -7.5233
  31   2.0000      -0.247465        -6.7339
  32   0.0000      -0.023723        -0.6455
  33   0.0000       0.075188         2.0460
  34   0.0000       0.103824         2.8252
  35   0.0000       0.123350         3.3565
  36   0.0000       0.125679         3.4199

MULLIKEN ATOMIC CHARGES
-----------------------
   0 C :   -0.527193
   1 C :   -0.222190
   2 C :   -0.335473
   3 C :    0.390623
   4 O :   -0.507122
   5 O :   -0.173519
   6 C :   -0.149497
   7 C :   -0.491815
   8 H :    0.161694
   9 H :    0.163001
  10 H :    0.161629
  11 H :    0.156004
  12 H :    0.163315
  13 H :    0.188011
  14 H :    0.179308
  15 H :    0.172737
  16 H :    0.171160
  17 H :    0.168985
  18 H :    0.165512
  19 H :    0.164832
Sum of atomic charges:    0.0000000

LOEWDIN ATOMIC CHARGES
----------------------
   0 C :   -0.423002
   1 C :   -0.289985
   2 C :   -0.229236
   3 C :    0.358814
   4 O :   -0.489221
   5 O :   -0.602252
   6 C :    0.036531
   7 C :   -0.389825
   8 H :    0.156420
   9 H :    0.156129
  10 H :    0.156031
  11 H :    0.164649
  12 H :    0.160241
  13 H :    0.190766
  14 H :    0.181366
  15 H :    0.183772
  16 H :    0.185206
  17 H :    0.168348
  18 H :    0.162707
  19 H :    0.162540

  Mayer bond orders larger than 0.100000
B(  0-C ,  1-C ) :   0.8982 B(  0-C ,  8-H ) :   0.9662 B(  0-C ,  9-H ) :   0.9770
B(  0-C , 10-H ) :   0.9694 B(  1-C ,  2-C ) :   0.8768 B(  1-C , 11-H ) :   0.9721
B(  1-C , 12-H ) :   0.9611 B(  2-C ,  3-C ) :   0.9538 B(  2-C , 13-H ) :   0.9372
B(  2-C , 14-H ) :   1.0003 B(  3-C ,  4-O ) :   1.7547 B(  3-C ,  5-O ) :   1.0862
B(  5-O ,  6-C ) :   0.7933 B(  6-C ,  7-C ) :   0.9437 B(  6-C , 15-H ) :   0.9415
B(  6-C , 16-H ) :   0.9507 B(  7-C , 17-H ) :   0.9617 B(  7-C , 18-H ) :   0.9718
B(  7-C , 19-H ) :   0.9684

Dispersion correction           -0.005100436
FINAL SINGLE POINT ENERGY      -386.241805364616

DIPOLE MOMENT
-------------

Method             : SCF
Type of density    : Electron Density
Multiplicity       :   1
Irrep              :   0
Energy             :  -386.2483377561457019 Eh
Relativity type    :
Basis              : AO
                                X                 Y                 Z
Electronic contribution:      1.510603815       4.858120584      -1.187244947
Nuclear contribution   :     -1.306412391      -5.663190889       2.162430972
                        -----------------------------------------
Total Dipole Moment    :      0.204191424      -0.805070304       0.975186024
                        -----------------------------------------
Magnitude (a.u.)       :      1.280945009
Magnitude (Debye)      :      3.255903461

Rotational constants in cm-1:             0.110182             0.037945             0.033649
Rotational constants in MHz :          3303.185330          1137.553227          1008.784864

                             ****ORCA TERMINATED NORMALLY****
TOTAL RUN TIME: 0 days 0 hours 0 minutes 37 seconds 324 msec
