                         Program Version 6.0.0  -   RELEASE  -
|  1> ! pbe def2-sv(p) def2/J RI DEFGRID1 loosescf d4 GCP(DFT/SV(P)) printgap
|  2> %output
|  3>     printlevel normal
|  4> end
|  5> * xyz 0 1
|  6> C -3.6735330192 0.1712723418 1.8438304344
|  7> C -3.0525993915 0.6222137952 0.5213497914
|  8> H -3.0895686678 1.7125362286 0.4414414214
|  9> C -1.608317801 0.1803091508 0.392637825
| 10> C -1.2819532 -1.1909623896 0.4333396936
| 11> C 0.0133988412 -1.6068118521 0.3269285314
| 12> C 1.0638731192 -0.6757490522 0.1717556426
| 13> C 2.4061650866 -1.0707298853 0.0600377337
| 14> C 3.4106470035 -0.140011191 -0.0941095722
| 15> C 3.0889730017 1.2311782591 -0.1408502553
| 16> C 1.786859257 1.6349401212 -0.0334489537
| 17> C 0.7406341291 0.7058676527 0.1244542958
| 18> C -0.6078389096 1.1022236475 0.2342178218
| 19> O 4.6802190644 -0.6328873806 -0.1929997483
| 20> C 5.75755287 0.2712477042 -0.3491943385
| 21> C -3.7835830229 0.071680156 -0.6840229552
| 22> O -3.9245085915 0.6894525408 -1.7202139198
| 23> O -4.2269124922 -1.1614518595 -0.5282542218
| 24> H -3.6846980644 -0.9114980603 1.9170714005
| 25> H -3.0922124657 0.573653257 2.6687764796
| 26> H -4.6945855787 0.5361140394 1.9209372711
| 27> H -2.0734857572 -1.9163203887 0.5427162387
| 28> H 0.2547626101 -2.658782385 0.3577111415
| 29> H 2.6666768042 -2.1173259819 0.0938786108
| 30> H 3.8653592344 1.9691314394 -0.2618255866
| 31> H 1.5463262383 2.6871156636 -0.0705922055
| 32> H -0.8391978349 2.1569928471 0.1922691528
| 33> H 5.6610306595 0.8475991967 -1.2729812706
| 34> H 6.6466265718 -0.3532257874 -0.400979769
| 35> H 5.8347164171 0.9476080387 0.5060094127
| 36> H -4.669027714 -1.5060126257 -1.3283137965
| 37> *
| 38>
| 39>                          ****END OF INPUT****

CARTESIAN COORDINATES (ANGSTROEM)
---------------------------------
  C     -3.673533    0.171272    1.843830
  C     -3.052599    0.622214    0.521350
  H     -3.089569    1.712536    0.441441
  C     -1.608318    0.180309    0.392638
  C     -1.281953   -1.190962    0.433340
  C      0.013399   -1.606812    0.326929
  C      1.063873   -0.675749    0.171756
  C      2.406165   -1.070730    0.060038
  C      3.410647   -0.140011   -0.094110
  C      3.088973    1.231178   -0.140850
  C      1.786859    1.634940   -0.033449
  C      0.740634    0.705868    0.124454
  C     -0.607839    1.102224    0.234218
  O      4.680219   -0.632887   -0.193000
  C      5.757553    0.271248   -0.349194
  C     -3.783583    0.071680   -0.684023
  O     -3.924509    0.689453   -1.720214
  O     -4.226912   -1.161452   -0.528254
  H     -3.684698   -0.911498    1.917071
  H     -3.092212    0.573653    2.668776
  H     -4.694586    0.536114    1.920937
  H     -2.073486   -1.916320    0.542716
  H      0.254763   -2.658782    0.357711
  H      2.666677   -2.117326    0.093879
  H      3.865359    1.969131   -0.261826
  H      1.546326    2.687116   -0.070592
  H     -0.839198    2.156993    0.192269
  H      5.661031    0.847599   -1.272981
  H      6.646627   -0.353226   -0.400980
  H      5.834716    0.947608    0.506009
  H     -4.669028   -1.506013   -1.328314

 Total Charge           Charge          ....    0
 Multiplicity           Mult            ....    1
 Number of Electrons    NEL             ....  122
 Basis Dimension        Dim             ....  266

ORBITAL ENERGIES
----------------

  NO   OCC          E(Eh)            E(eV)
   0   2.0000     -18.803685      -511.6743
   1   2.0000     -18.789442      -511.2867
   2   2.0000     -18.734152      -509.7822
   3   2.0000     -10.009665      -272.3768
   4   2.0000      -9.951716      -270.8000
   5   2.0000      -9.943100      -270.5655
   6   2.0000      -9.911784      -269.7134
   7   2.0000      -9.903849      -269.4974
   8   2.0000      -9.901608      -269.4365
   9   2.0000      -9.898245      -269.3449
  10   2.0000      -9.896762      -269.3046
  11   2.0000      -9.895566      -269.2721
  12   2.0000      -9.891015      -269.1482
  13   2.0000      -9.890670      -269.1388
  14   2.0000      -9.890306      -269.1289
  15   2.0000      -9.885099      -268.9872
  16   2.0000      -9.883762      -268.9508
  17   2.0000      -1.011455       -27.5231
  18   2.0000      -0.969118       -26.3710
  19   2.0000      -0.907974       -24.7072
  20   2.0000      -0.795598       -21.6493
  21   2.0000      -0.757429       -20.6107
  22   2.0000      -0.718451       -19.5500
  23   2.0000      -0.698094       -18.9961
  24   2.0000      -0.665371       -18.1057
  25   2.0000      -0.657484       -17.8910
  26   2.0000      -0.619870       -16.8675
  27   2.0000      -0.603451       -16.4207
  28   2.0000      -0.566471       -15.4145
  29   2.0000      -0.562302       -15.3010
  30   2.0000      -0.539103       -14.6697
  31   2.0000      -0.524651       -14.2765
  32   2.0000      -0.484468       -13.1830
  33   2.0000      -0.464237       -12.6325
  34   2.0000      -0.459243       -12.4966
  35   2.0000      -0.428284       -11.6542
  36   2.0000      -0.423032       -11.5113
  37   2.0000      -0.419903       -11.4261
  38   2.0000      -0.416797       -11.3416
  39   2.0000      -0.410341       -11.1660
  40   2.0000      -0.395456       -10.7609
  41   2.0000      -0.393329       -10.7030
  42   2.0000      -0.378058       -10.2875
  43   2.0000      -0.371202       -10.1009
  44   2.0000      -0.363282        -9.8854
  45   2.0000      -0.358430        -9.7534
  46   2.0000      -0.355027        -9.6608
  47   2.0000      -0.343983        -9.3602
  48   2.0000      -0.342141        -9.3101
  49   2.0000      -0.328634        -8.9426
  50   2.0000      -0.315982        -8.5983
  51   2.0000      -0.312534        -8.5045
  52   2.0000      -0.297992        -8.1088
  53   2.0000      -0.294968        -8.0265
  54   2.0000      -0.279772        -7.6130
  55   2.0000      -0.271162        -7.3787
  56   2.0000      -0.269965        -7.3461
  57   2.0000      -0.249137        -6.7794
  58   2.0000      -0.218113        -5.9352
  59   2.0000      -0.211042        -5.7427
  60   2.0000      -0.180998        -4.9252
  61   0.0000      -0.067842        -1.8461
  62   0.0000      -0.037067        -1.0086
  63   0.0000      -0.013952        -0.3797
  64   0.0000      -0.000628        -0.0171
  65   0.0000       0.021323         0.5802

MULLIKEN ATOMIC CHARGES
-----------------------
   0 C :   -0.224257
   1 C :   -0.129725
   2 H :    0.081085
   3 C :    0.117788
   4 C :   -0.106323
   5 C :   -0.120978
   6 C :    0.173325
   7 C :   -0.225029
   8 C :    0.298987
   9 C :   -0.172999
  10 C :   -0.134229
  11 C :    0.177041
  12 C :   -0.212020
  13 O :   -0.270119
  14 C :   -0.115844
  15 C :    0.111325
  16 O :   -0.187027
  17 O :   -0.287357
  18 H :    0.119999
  19 H :    0.108031
  20 H :    0.106217
  21 H :    0.052007
  22 H :    0.034372
  23 H :    0.030141
  24 H :    0.039674
  25 H :    0.039796
  26 H :    0.027215
  27 H :    0.112519
  28 H :    0.127143
  29 H :    0.111792
  30 H :    0.317449
Sum of atomic charges:   -0.0000000

LOEWDIN ATOMIC CHARGES
----------------------
   0 C :   -0.322307
   1 C :   -0.149244
   2 H :    0.136835
   3 C :   -0.035878
   4 C :   -0.121189
   5 C :   -0.111896
   6 C :   -0.020322
   7 C :   -0.139092
   8 C :    0.029892
   9 C :   -0.164141
  10 C :   -0.102745
  11 C :   -0.035257
  12 C :   -0.106839
  13 O :   -0.092851
  14 C :   -0.202697
  15 C :    0.033543
  16 O :   -0.170520
  17 O :   -0.195411
  18 H :    0.124329
  19 H :    0.125441
  20 H :    0.122672
  21 H :    0.124548
  22 H :    0.123727
  23 H :    0.129858
  24 H :    0.127657
  25 H :    0.125246
  26 H :    0.123140
  27 H :    0.110013
  28 H :    0.123472
  29 H :    0.109737
  30 H :    0.300282

  Mayer bond orders larger than 0.100000
B(  0-C ,  1-C ) :   1.0877 B(  0-C , 18-H ) :   0.9364 B(  0-C , 19-H ) :   0.9460
B(  0-C , 20-H ) :   0.9507 B(  1-C ,  2-H ) :   0.8763 B(  1-C ,  3-C ) :   0.9992
B(  1-C , 15-C ) :   0.9394 B(  3-C ,  4-C ) :   1.2435 B(  3-C , 12-C ) :   1.4620
B(  4-C ,  5-C ) :   1.4632 B(  4-C , 21-H ) :   0.9487 B(  5-C ,  6-C ) :   1.2160
B(  5-C , 22-H ) :   0.9673 B(  6-C ,  7-C ) :   1.2296 B(  6-C , 11-C ) :   1.2436
B(  7-C ,  8-C ) :   1.3827 B(  7-C , 10-C ) :   0.1001 B(  7-C , 23-H ) :   0.9726
B(  8-C ,  9-C ) :   1.1964 B(  8-C , 13-O ) :   1.1351 B(  9-C , 10-C ) :   1.4244
B(  9-C , 24-H ) :   0.9598 B( 10-C , 11-C ) :   1.2344 B( 10-C , 25-H ) :   0.9641
B( 11-C , 12-C ) :   1.2162 B( 12-C , 26-H ) :   0.9635 B( 13-O , 14-C ) :   0.9876
B( 14-C , 27-H ) :   0.9421 B( 14-C , 28-H ) :   0.9589 B( 14-C , 29-H ) :   0.9421
B( 15-C , 16-O ) :   2.1329 B( 15-C , 17-O ) :   1.2497 B( 17-O , 30-H ) :   0.8171

Dispersion correction           -0.038929984
FINAL SINGLE POINT ENERGY      -765.990742401138

DIPOLE MOMENT
-------------

Method             : SCF
Type of density    : Electron Density
Multiplicity       :   1
Irrep              :   0
Energy             :  -766.0852330025297761 Eh
Relativity type    :
Basis              : AO
                                X                 Y                 Z
Electronic contribution:     -3.483650505      -1.924646427      -4.579561364
Nuclear contribution   :      4.013417117       1.829565241       4.941881381
                        -----------------------------------------
Total Dipole Moment    :      0.529766612      -0.095081186       0.362320017
                        -----------------------------------------
Magnitude (a.u.)       :      0.648821154
Magnitude (Debye)      :      1.649172312

Rotational constants in cm-1:             0.048296             0.006713             0.006473
Rotational constants in MHz :          1447.873222           201.251966           194.050924

                             ****ORCA TERMINATED NORMALLY****
TOTAL RUN TIME: 0 days 0 hours 0 minutes 25 seconds 673 msec
