                         Program Version 6.0.0  -   RELEASE  -
|  1> ! r2scan-3c def2/J RI DEFGRID2 scfconv6 printgap
|  2> %output
|  3>     printlevel normal
|  4> end
|  5> * xyz 0 1
|  6> C -3.3807670727 0.392651331 0.7739398277
|  7> C -2.7873801142 -0.5612400824 -0.2568497579
|  8> C -1.3928146996 -0.1489506013 -0.7266611071
|  9> C -0.3384521164 -0.2694753028 0.3727973739
| 10> C 1.0235512717 0.1540494985 -0.1080342855
| 11> O 1.2364683012 0.9357428755 -1.0107386519
| 12> O 1.9833416278 -0.4352949735 0.5991807484
| 13> C 3.351626227 -0.128764971 0.310486318
| 14> H -2.8172344384 0.369955957 1.7027491701
| 15> H -3.3786677895 1.4110710993 0.3923217489
| 16> H -4.4072464955 0.1120764256 0.9962195342
| 17> H -2.743593943 -1.5686711542 0.1612015102
| 18> H -3.4444784049 -0.5921919065 -1.1278857724
| 19> H -1.4107737788 0.8816103714 -1.0862395072
| 20> H -1.0957696975 -0.7803615641 -1.5667471406
| 21> H -0.2712079315 -1.2885730663 0.7539568391
| 22> H -0.5924994288 0.3865943861 1.2082940599
| 23> H 3.8603954169 -1.0680937305 0.1044647856
| 24> H 3.7805161595 0.3501646101 1.1888893019
| 25> H 3.407134074 0.5363683729 -0.5518930176
| 26> *
| 27>
| 28>                          ****END OF INPUT****

CARTESIAN COORDINATES (ANGSTROEM)
---------------------------------
  C     -3.380767    0.392651    0.773940
  C     -2.787380   -0.561240   -0.256850
  C     -1.392815   -0.148951   -0.726661
  C     -0.338452   -0.269475    0.372797
  C      1.023551    0.154049   -0.108034
  O      1.236468    0.935743   -1.010739
  O      1.983342   -0.435295    0.599181
  C      3.351626   -0.128765    0.310486
  H     -2.817234    0.369956    1.702749
  H     -3.378668    1.411071    0.392322
  H     -4.407246    0.112076    0.996220
  H     -2.743594   -1.568671    0.161202
  H     -3.444478   -0.592192   -1.127886
  H     -1.410774    0.881610   -1.086240
  H     -1.095770   -0.780362   -1.566747
  H     -0.271208   -1.288573    0.753957
  H     -0.592499    0.386594    1.208294
  H      3.860395   -1.068094    0.104465
  H      3.780516    0.350165    1.188889
  H      3.407134    0.536368   -0.551893

 Total Charge           Charge          ....    0
 Multiplicity           Mult            ....    1
 Number of Electrons    NEL             ....   64
 Basis Dimension        Dim             ....  222

ORBITAL ENERGIES
----------------

  NO   OCC          E(Eh)            E(eV)
   0   2.0000     -18.998160      -516.9662
   1   2.0000     -18.929220      -515.0903
   2   2.0000     -10.153613      -276.2938
   3   2.0000     -10.084312      -274.4081
   4   2.0000     -10.042314      -273.2652
   5   2.0000     -10.028366      -272.8857
   6   2.0000     -10.028054      -272.8772
   7   2.0000     -10.018516      -272.6177
   8   2.0000      -1.071406       -29.1544
   9   2.0000      -0.976816       -26.5805
  10   2.0000      -0.776946       -21.1418
  11   2.0000      -0.727930       -19.8080
  12   2.0000      -0.684818       -18.6349
  13   2.0000      -0.622646       -16.9431
  14   2.0000      -0.550117       -14.9694
  15   2.0000      -0.524308       -14.2672
  16   2.0000      -0.473120       -12.8742
  17   2.0000      -0.461664       -12.5625
  18   2.0000      -0.440162       -11.9774
  19   2.0000      -0.431715       -11.7476
  20   2.0000      -0.413827       -11.2608
  21   2.0000      -0.394689       -10.7400
  22   2.0000      -0.380546       -10.3552
  23   2.0000      -0.365745        -9.9524
  24   2.0000      -0.347911        -9.4671
  25   2.0000      -0.334972        -9.1150
  26   2.0000      -0.319086        -8.6828
  27   2.0000      -0.300987        -8.1903
  28   2.0000      -0.299945        -8.1619
  29   2.0000      -0.296789        -8.0760
  30   2.0000      -0.271708        -7.3936
  31   2.0000      -0.238979        -6.5029
  32   0.0000      -0.012938        -0.3521
  33   0.0000       0.068620         1.8672
  34   0.0000       0.088593         2.4107
  35   0.0000       0.100214         2.7270
  36   0.0000       0.118726         3.2307

MULLIKEN ATOMIC CHARGES
-----------------------
   0 C :   -0.495355
   1 C :   -0.204374
   2 C :   -0.273874
   3 C :   -0.324634
   4 C :    0.387348
   5 O :   -0.436348
   6 O :   -0.193563
   7 C :   -0.309350
   8 H :    0.144018
   9 H :    0.149643
  10 H :    0.148385
  11 H :    0.130926
  12 H :    0.146440
  13 H :    0.164244
  14 H :    0.145012
  15 H :    0.165832
  16 H :    0.170134
  17 H :    0.147262
  18 H :    0.147475
  19 H :    0.190781
Sum of atomic charges:    0.0000000

LOEWDIN ATOMIC CHARGES
----------------------
   0 C :   -0.425882
   1 C :   -0.315426
   2 C :   -0.289515
   3 C :   -0.228620
   4 C :    0.363245
   5 O :   -0.442889
   6 O :   -0.603887
   7 C :   -0.047236
   8 H :    0.147112
   9 H :    0.151967
  10 H :    0.151989
  11 H :    0.151408
  12 H :    0.154318
  13 H :    0.168819
  14 H :    0.161877
  15 H :    0.180166
  16 H :    0.183278
  17 H :    0.173293
  18 H :    0.172632
  19 H :    0.193350

  Mayer bond orders larger than 0.100000
B(  0-C ,  1-C ) :   0.8863 B(  0-C ,  8-H ) :   0.9835 B(  0-C ,  9-H ) :   0.9817
B(  0-C , 10-H ) :   0.9695 B(  1-C ,  2-C ) :   0.8715 B(  1-C , 11-H ) :   0.9792
B(  1-C , 12-H ) :   0.9735 B(  2-C ,  3-C ) :   0.9152 B(  2-C , 13-H ) :   0.9800
B(  2-C , 14-H ) :   0.9691 B(  3-C ,  4-C ) :   1.0184 B(  3-C , 15-H ) :   0.9662
B(  3-C , 16-H ) :   0.9295 B(  4-C ,  5-O ) :   1.8348 B(  4-C ,  6-O ) :   1.0692
B(  6-O ,  7-C ) :   0.8382 B(  7-C , 17-H ) :   0.9657 B(  7-C , 18-H ) :   0.9633
B(  7-C , 19-H ) :   0.9698

Dispersion correction           -0.004981377
FINAL SINGLE POINT ENERGY      -386.229015602030

DIPOLE MOMENT
-------------

Method             : SCF
Type of density    : Electron Density
Multiplicity       :   1
Irrep              :   0
Energy             :  -386.2362006573561075 Eh
Relativity type    :
Basis              : AO
                                X                 Y                 Z
Electronic contribution:      8.574972982       0.695346879      -1.507698504
Nuclear contribution   :     -8.502169148      -1.165334744       2.034720934
                        -----------------------------------------
Total Dipole Moment    :      0.072803834      -0.469987864       0.527022430
                        -----------------------------------------
Magnitude (a.u.)       :      0.709888465
Magnitude (Debye)      :      1.804393081

Rotational constants in cm-1:             0.195584             0.027148             0.025830
Rotational constants in MHz :          5863.472658           813.890686           774.368693

                             ****ORCA TERMINATED NORMALLY****
TOTAL RUN TIME: 0 days 0 hours 0 minutes 25 seconds 169 msec
