                         Program Version 6.0.0  -   RELEASE  -
|  1> ! r2scan-3c def2/J RI DEFGRID2 scfconv6 printgap
|  2> %output
|  3>     printlevel normal
|  4> end
|  5> %cpcm
|  6>     smd true
|  7>     smdsolvent "water"
|  8> end
|  9> * xyz 0 1
| 10> C -3.3807670727 0.392651331 0.7739398277
| 11> C -2.7873801142 -0.5612400824 -0.2568497579
| 12> C -1.3928146996 -0.1489506013 -0.7266611071
| 13> C -0.3384521164 -0.2694753028 0.3727973739
| 14> C 1.0235512717 0.1540494985 -0.1080342855
| 15> O 1.2364683012 0.9357428755 -1.0107386519
| 16> O 1.9833416278 -0.4352949735 0.5991807484
| 17> C 3.351626227 -0.128764971 0.310486318
| 18> H -2.8172344384 0.369955957 1.7027491701
| 19> H -3.3786677895 1.4110710993 0.3923217489
| 20> H -4.4072464955 0.1120764256 0.9962195342
| 21> H -2.743593943 -1.5686711542 0.1612015102
| 22> H -3.4444784049 -0.5921919065 -1.1278857724
| 23> H -1.4107737788 0.8816103714 -1.0862395072
| 24> H -1.0957696975 -0.7803615641 -1.5667471406
| 25> H -0.2712079315 -1.2885730663 0.7539568391
| 26> H -0.5924994288 0.3865943861 1.2082940599
| 27> H 3.8603954169 -1.0680937305 0.1044647856
| 28> H 3.7805161595 0.3501646101 1.1888893019
| 29> H 3.407134074 0.5363683729 -0.5518930176
| 30> *
| 31>
| 32>                          ****END OF INPUT****

CARTESIAN COORDINATES (ANGSTROEM)
---------------------------------
  C     -3.380767    0.392651    0.773940
  C     -2.787380   -0.561240   -0.256850
  C     -1.392815   -0.148951   -0.726661
  C     -0.338452   -0.269475    0.372797
  C      1.023551    0.154049   -0.108034
  O      1.236468    0.935743   -1.010739
  O      1.983342   -0.435295    0.599181
  C      3.351626   -0.128765    0.310486
  H     -2.817234    0.369956    1.702749
  H     -3.378668    1.411071    0.392322
  H     -4.407246    0.112076    0.996220
  H     -2.743594   -1.568671    0.161202
  H     -3.444478   -0.592192   -1.127886
  H     -1.410774    0.881610   -1.086240
  H     -1.095770   -0.780362   -1.566747
  H     -0.271208   -1.288573    0.753957
  H     -0.592499    0.386594    1.208294
  H      3.860395   -1.068094    0.104465
  H      3.780516    0.350165    1.188889
  H      3.407134    0.536368   -0.551893

 Total Charge           Charge          ....    0
 Multiplicity           Mult            ....    1
 Number of Electrons    NEL             ....   64
 Basis Dimension        Dim             ....  222

ORBITAL ENERGIES
----------------

  NO   OCC          E(Eh)            E(eV)
   0   2.0000     -19.003123      -517.1013
   1   2.0000     -18.943564      -515.4806
   2   2.0000     -10.162906      -276.5467
   3   2.0000     -10.074412      -274.1387
   4   2.0000     -10.035271      -273.0736
   5   2.0000     -10.022701      -272.7316
   6   2.0000     -10.018719      -272.6232
   7   2.0000     -10.008026      -272.3322
   8   2.0000      -1.077791       -29.3282
   9   2.0000      -0.989175       -26.9168
  10   2.0000      -0.770591       -20.9688
  11   2.0000      -0.722424       -19.6582
  12   2.0000      -0.677942       -18.4478
  13   2.0000      -0.614965       -16.7340
  14   2.0000      -0.543848       -14.7989
  15   2.0000      -0.521428       -14.1888
  16   2.0000      -0.473248       -12.8777
  17   2.0000      -0.460588       -12.5332
  18   2.0000      -0.451431       -12.2841
  19   2.0000      -0.423940       -11.5360
  20   2.0000      -0.405800       -11.0424
  21   2.0000      -0.391504       -10.6534
  22   2.0000      -0.377047       -10.2600
  23   2.0000      -0.359381        -9.7792
  24   2.0000      -0.343873        -9.3573
  25   2.0000      -0.328651        -8.9431
  26   2.0000      -0.319778        -8.7016
  27   2.0000      -0.294872        -8.0239
  28   2.0000      -0.292655        -7.9635
  29   2.0000      -0.288956        -7.8629
  30   2.0000      -0.277245        -7.5442
  31   2.0000      -0.253903        -6.9091
  32   0.0000      -0.019738        -0.5371
  33   0.0000       0.073800         2.0082
  34   0.0000       0.096758         2.6329
  35   0.0000       0.109372         2.9762
  36   0.0000       0.128361         3.4929

MULLIKEN ATOMIC CHARGES
-----------------------
   0 C :   -0.530694
   1 C :   -0.227594
   2 C :   -0.287775
   3 C :   -0.336607
   4 C :    0.425257
   5 O :   -0.518940
   6 O :   -0.211636
   7 C :   -0.323016
   8 H :    0.159813
   9 H :    0.157069
  10 H :    0.157708
  11 H :    0.144557
  12 H :    0.155114
  13 H :    0.157243
  14 H :    0.158866
  15 H :    0.183792
  16 H :    0.202397
  17 H :    0.174028
  18 H :    0.174648
  19 H :    0.185770
Sum of atomic charges:    0.0000000

LOEWDIN ATOMIC CHARGES
----------------------
   0 C :   -0.433279
   1 C :   -0.314946
   2 C :   -0.293077
   3 C :   -0.225614
   4 C :    0.373837
   5 O :   -0.503120
   6 O :   -0.606965
   7 C :   -0.041850
   8 H :    0.152205
   9 H :    0.153535
  10 H :    0.153852
  11 H :    0.155856
  12 H :    0.156494
  13 H :    0.164816
  14 H :    0.163860
  15 H :    0.188867
  16 H :    0.195399
  17 H :    0.184500
  18 H :    0.183715
  19 H :    0.191916

  Mayer bond orders larger than 0.100000
B(  0-C ,  1-C ) :   0.8822 B(  0-C ,  8-H ) :   0.9787 B(  0-C ,  9-H ) :   0.9796
B(  0-C , 10-H ) :   0.9678 B(  1-C ,  2-C ) :   0.8772 B(  1-C , 11-H ) :   0.9802
B(  1-C , 12-H ) :   0.9734 B(  2-C ,  3-C ) :   0.9016 B(  2-C , 13-H ) :   0.9771
B(  2-C , 14-H ) :   0.9700 B(  3-C ,  4-C ) :   1.0204 B(  3-C , 15-H ) :   0.9559
B(  3-C , 16-H ) :   0.9176 B(  4-C ,  5-O ) :   1.7744 B(  4-C ,  6-O ) :   1.0927
B(  6-O ,  7-C ) :   0.8257 B(  7-C , 17-H ) :   0.9563 B(  7-C , 18-H ) :   0.9544
B(  7-C , 19-H ) :   0.9659

Dispersion correction           -0.004981377
FINAL SINGLE POINT ENERGY      -386.233135557672

DIPOLE MOMENT
-------------

Method             : SCF
Type of density    : Electron Density
Multiplicity       :   1
Irrep              :   0
Energy             :  -386.2403206129978912 Eh
Relativity type    :
Basis              : AO
                                X                 Y                 Z
Electronic contribution:      8.603273238       0.462303953      -1.211663208
Nuclear contribution   :     -8.502169148      -1.165334744       2.034720934
                        -----------------------------------------
Total Dipole Moment    :      0.101104091      -0.703030791       0.823057726
                        -----------------------------------------
Magnitude (a.u.)       :      1.087151485
Magnitude (Debye)      :      2.763319470

Rotational constants in cm-1:             0.195584             0.027148             0.025830
Rotational constants in MHz :          5863.472658           813.890686           774.368693

                             ****ORCA TERMINATED NORMALLY****
TOTAL RUN TIME: 0 days 0 hours 0 minutes 33 seconds 158 msec
