                         Program Version 6.0.0  -   RELEASE  -
|  1> ! pbe def2-sv(p) def2/J RI DEFGRID1 loosescf d4 GCP(DFT/SV(P)) printgap
|  2> %output
|  3>     printlevel normal
|  4> end
|  5> * xyz 0 1
|  6> C -2.6112022247 -0.209824218 1.2461285329
|  7> C -2.524909026 0.0724891084 -0.2489501572
|  8> C -1.2514271103 -0.5189388133 -0.8616122124
|  9> C -0.0257743682 0.1808621375 -0.332142281
| 10> O 0.1477167292 1.3817893927 -0.3481781221
| 11> O 0.8487419855 -0.6823087584 0.1702036287
| 12> C 2.0904200981 -0.1804800565 0.6921231196
| 13> C 3.1432750802 -0.0850518687 -0.4013750399
| 14> H -3.531038806 0.1981467239 1.6564648963
| 15> H -2.5918141813 -1.2805322654 1.4347692426
| 16> H -1.771924809 0.2465880976 1.7679530254
| 17> H -2.525608595 1.1506955905 -0.4197157916
| 18> H -3.3906636637 -0.3566479131 -0.7538641056
| 19> H -1.267646863 -0.3726600222 -1.9430397198
| 20> H -1.1672237553 -1.5825428739 -0.6422083124
| 21> H 1.9093215991 0.8014566788 1.1400621703
| 22> H 2.3784916874 -0.9001214264 1.4590577386
| 23> H 4.0861493973 0.2301301688 0.0333702674
| 24> H 3.2731956239 -1.0516968863 -0.8803961738
| 25> H 2.8383147457 0.643351851 -1.1495207293
| 26> *
| 27>
| 28>                          ****END OF INPUT****

CARTESIAN COORDINATES (ANGSTROEM)
---------------------------------
  C     -2.611202   -0.209824    1.246129
  C     -2.524909    0.072489   -0.248950
  C     -1.251427   -0.518939   -0.861612
  C     -0.025774    0.180862   -0.332142
  O      0.147717    1.381789   -0.348178
  O      0.848742   -0.682309    0.170204
  C      2.090420   -0.180480    0.692123
  C      3.143275   -0.085052   -0.401375
  H     -3.531039    0.198147    1.656465
  H     -2.591814   -1.280532    1.434769
  H     -1.771925    0.246588    1.767953
  H     -2.525609    1.150696   -0.419716
  H     -3.390664   -0.356648   -0.753864
  H     -1.267647   -0.372660   -1.943040
  H     -1.167224   -1.582543   -0.642208
  H      1.909322    0.801457    1.140062
  H      2.378492   -0.900121    1.459058
  H      4.086149    0.230130    0.033370
  H      3.273196   -1.051697   -0.880396
  H      2.838315    0.643352   -1.149521

 Total Charge           Charge          ....    0
 Multiplicity           Mult            ....    1
 Number of Electrons    NEL             ....   64
 Basis Dimension        Dim             ....  136

ORBITAL ENERGIES
----------------

  NO   OCC          E(Eh)            E(eV)
   0   2.0000     -18.797757      -511.5130
   1   2.0000     -18.731091      -509.6989
   2   2.0000     -10.004626      -272.2397
   3   2.0000      -9.945997      -270.6443
   4   2.0000      -9.895728      -269.2765
   5   2.0000      -9.890464      -269.1332
   6   2.0000      -9.887137      -269.0427
   7   2.0000      -9.876457      -268.7521
   8   2.0000      -1.003823       -27.3154
   9   2.0000      -0.908437       -24.7198
  10   2.0000      -0.726994       -19.7825
  11   2.0000      -0.696435       -18.9510
  12   2.0000      -0.636501       -17.3201
  13   2.0000      -0.590569       -16.0702
  14   2.0000      -0.531615       -14.4660
  15   2.0000      -0.493100       -13.4179
  16   2.0000      -0.452674       -12.3179
  17   2.0000      -0.432605       -11.7718
  18   2.0000      -0.422592       -11.4993
  19   2.0000      -0.396666       -10.7938
  20   2.0000      -0.391704       -10.6588
  21   2.0000      -0.374598       -10.1933
  22   2.0000      -0.361055        -9.8248
  23   2.0000      -0.350177        -9.5288
  24   2.0000      -0.338197        -9.2028
  25   2.0000      -0.329783        -8.9739
  26   2.0000      -0.304711        -8.2916
  27   2.0000      -0.297925        -8.1069
  28   2.0000      -0.296510        -8.0685
  29   2.0000      -0.287170        -7.8143
  30   2.0000      -0.255392        -6.9496
  31   2.0000      -0.217987        -5.9317
  32   0.0000      -0.020308        -0.5526
  33   0.0000       0.041525         1.1299
  34   0.0000       0.055178         1.5015
  35   0.0000       0.075716         2.0603
  36   0.0000       0.081007         2.2043

MULLIKEN ATOMIC CHARGES
-----------------------
   0 C :   -0.288936
   1 C :   -0.200543
   2 C :   -0.122620
   3 C :    0.091754
   4 O :   -0.213154
   5 O :   -0.234791
   6 C :   -0.015635
   7 C :   -0.302730
   8 H :    0.107620
   9 H :    0.098930
  10 H :    0.116336
  11 H :    0.108386
  12 H :    0.091195
  13 H :    0.112533
  14 H :    0.092434
  15 H :    0.107705
  16 H :    0.101170
  17 H :    0.111996
  18 H :    0.113026
  19 H :    0.125322
Sum of atomic charges:    0.0000000

LOEWDIN ATOMIC CHARGES
----------------------
   0 C :   -0.342352
   1 C :   -0.227405
   2 C :   -0.247008
   3 C :    0.037009
   4 O :   -0.174961
   5 O :   -0.065800
   6 C :   -0.114206
   7 C :   -0.355434
   8 H :    0.121537
   9 H :    0.117317
  10 H :    0.120584
  11 H :    0.124775
  12 H :    0.117864
  13 H :    0.141807
  14 H :    0.126399
  15 H :    0.118920
  16 H :    0.116683
  17 H :    0.130012
  18 H :    0.124204
  19 H :    0.130055

  Mayer bond orders larger than 0.100000
B(  0-C ,  1-C ) :   1.1543 B(  0-C ,  8-H ) :   0.9521 B(  0-C ,  9-H ) :   0.9538
B(  0-C , 10-H ) :   0.9494 B(  1-C ,  2-C ) :   1.1118 B(  1-C , 11-H ) :   0.9196
B(  1-C , 12-H ) :   0.9281 B(  2-C ,  3-C ) :   1.0179 B(  2-C , 13-H ) :   0.8930
B(  2-C , 14-H ) :   0.9103 B(  3-C ,  4-O ) :   2.0327 B(  3-C ,  5-O ) :   1.2184
B(  5-O ,  6-C ) :   0.9232 B(  6-C ,  7-C ) :   1.1728 B(  6-C , 15-H ) :   0.9125
B(  6-C , 16-H ) :   0.9371 B(  7-C , 17-H ) :   0.9447 B(  7-C , 18-H ) :   0.9493
B(  7-C , 19-H ) :   0.9470

Dispersion correction           -0.015239303
FINAL SINGLE POINT ENERGY      -385.458524473006

DIPOLE MOMENT
-------------

Method             : SCF
Type of density    : Electron Density
Multiplicity       :   1
Irrep              :   0
Energy             :  -385.5334778077519786 Eh
Relativity type    :
Basis              : AO
                                X                 Y                 Z
Electronic contribution:      1.843608191       1.506772695      -1.489665620
Nuclear contribution   :     -1.636817676      -2.122861705       1.594995534
                        -----------------------------------------
Total Dipole Moment    :      0.206790515      -0.616089010       0.105329914
                        -----------------------------------------
Magnitude (a.u.)       :      0.658348218
Magnitude (Debye)      :      1.673388184

Rotational constants in cm-1:             0.155005             0.034058             0.032799
Rotational constants in MHz :          4646.930162          1021.040485           983.281542

                             ****ORCA TERMINATED NORMALLY****
TOTAL RUN TIME: 0 days 0 hours 0 minutes 10 seconds 837 msec
