                         Program Version 6.0.0  -   RELEASE  -
|  1> ! pbe def2-sv(p) def2/J RI DEFGRID1 loosescf d4 GCP(DFT/SV(P)) printgap
|  2> %output
|  3>     printlevel normal
|  4> end
|  5> * xyz 0 1
|  6> C -2.1728110121 -1.384773296 0.4932367824
|  7> C -2.0584227849 -0.4245583027 -0.6843468192
|  8> C -1.4701726251 0.9275690971 -0.2605703109
|  9> C -0.0477882547 0.7746420071 0.2138015655
| 10> O 0.3359436007 1.0050463542 1.3422184866
| 11> O 0.7495572268 0.3635680758 -0.7640199763
| 12> C 2.1355793379 0.1310683169 -0.4674135167
| 13> C 2.3561218544 -1.2822271095 0.0502203159
| 14> H -2.5843057252 -2.3367130895 0.1686694588
| 15> H -1.1965186888 -1.5649235051 0.939368893
| 16> H -2.8217189147 -0.9706171008 1.2614136715
| 17> H -3.0472816046 -0.2534984147 -1.1109903117
| 18> H -1.4227702469 -0.8587629 -1.4572740271
| 19> H -2.0543464261 1.3629672777 0.549979159
| 20> H -1.4673068275 1.6044713745 -1.1153566519
| 21> H 2.6503144649 0.2910226351 -1.4152649431
| 22> H 2.4628368223 0.8677284754 0.2727349375
| 23> H 1.9741196165 -2.0069405432 -0.663756344
| 24> H 3.4178812547 -1.449861297 0.1981432346
| 25> H 1.843230915 -1.41551801 1.0004114453
| 26> *
| 27>
| 28>                          ****END OF INPUT****

CARTESIAN COORDINATES (ANGSTROEM)
---------------------------------
  C     -2.172811   -1.384773    0.493237
  C     -2.058423   -0.424558   -0.684347
  C     -1.470173    0.927569   -0.260570
  C     -0.047788    0.774642    0.213802
  O      0.335944    1.005046    1.342218
  O      0.749557    0.363568   -0.764020
  C      2.135579    0.131068   -0.467414
  C      2.356122   -1.282227    0.050220
  H     -2.584306   -2.336713    0.168669
  H     -1.196519   -1.564924    0.939369
  H     -2.821719   -0.970617    1.261414
  H     -3.047282   -0.253498   -1.110990
  H     -1.422770   -0.858763   -1.457274
  H     -2.054346    1.362967    0.549979
  H     -1.467307    1.604471   -1.115357
  H      2.650314    0.291023   -1.415265
  H      2.462837    0.867728    0.272735
  H      1.974120   -2.006941   -0.663756
  H      3.417881   -1.449861    0.198143
  H      1.843231   -1.415518    1.000411

 Total Charge           Charge          ....    0
 Multiplicity           Mult            ....    1
 Number of Electrons    NEL             ....   64
 Basis Dimension        Dim             ....  136

ORBITAL ENERGIES
----------------

  NO   OCC          E(Eh)            E(eV)
   0   2.0000     -18.797200      -511.4978
   1   2.0000     -18.730269      -509.6765
   2   2.0000     -10.004215      -272.2285
   3   2.0000      -9.946686      -270.6631
   4   2.0000      -9.896004      -269.2840
   5   2.0000      -9.893988      -269.2291
   6   2.0000      -9.887598      -269.0552
   7   2.0000      -9.877911      -268.7916
   8   2.0000      -1.004028       -27.3210
   9   2.0000      -0.907209       -24.6864
  10   2.0000      -0.730196       -19.8696
  11   2.0000      -0.695512       -18.9258
  12   2.0000      -0.636342       -17.3157
  13   2.0000      -0.590019       -16.0552
  14   2.0000      -0.536861       -14.6087
  15   2.0000      -0.495157       -13.4739
  16   2.0000      -0.451957       -12.2984
  17   2.0000      -0.436491       -11.8775
  18   2.0000      -0.408443       -11.1143
  19   2.0000      -0.404226       -10.9995
  20   2.0000      -0.393296       -10.7021
  21   2.0000      -0.376708       -10.2507
  22   2.0000      -0.357823        -9.7368
  23   2.0000      -0.353352        -9.6152
  24   2.0000      -0.338123        -9.2008
  25   2.0000      -0.328020        -8.9259
  26   2.0000      -0.311447        -8.4749
  27   2.0000      -0.299798        -8.1579
  28   2.0000      -0.298431        -8.1207
  29   2.0000      -0.289445        -7.8762
  30   2.0000      -0.255017        -6.9394
  31   2.0000      -0.213633        -5.8132
  32   0.0000      -0.019766        -0.5379
  33   0.0000       0.034827         0.9477
  34   0.0000       0.056772         1.5449
  35   0.0000       0.069056         1.8791
  36   0.0000       0.079953         2.1756

MULLIKEN ATOMIC CHARGES
-----------------------
   0 C :   -0.289351
   1 C :   -0.217120
   2 C :   -0.099834
   3 C :    0.082629
   4 O :   -0.205056
   5 O :   -0.242840
   6 C :   -0.012012
   7 C :   -0.308733
   8 H :    0.106101
   9 H :    0.120245
  10 H :    0.103254
  11 H :    0.094656
  12 H :    0.102447
  13 H :    0.096568
  14 H :    0.105754
  15 H :    0.100775
  16 H :    0.108075
  17 H :    0.113118
  18 H :    0.112273
  19 H :    0.129050
Sum of atomic charges:   -0.0000000

LOEWDIN ATOMIC CHARGES
----------------------
   0 C :   -0.342643
   1 C :   -0.229479
   2 C :   -0.242136
   3 C :    0.034621
   4 O :   -0.170258
   5 O :   -0.068567
   6 C :   -0.112743
   7 C :   -0.356908
   8 H :    0.120790
   9 H :    0.120379
  10 H :    0.120655
  11 H :    0.118764
  12 H :    0.119178
  13 H :    0.131633
  14 H :    0.137119
  15 H :    0.116541
  16 H :    0.119405
  17 H :    0.123842
  18 H :    0.130356
  19 H :    0.129450

  Mayer bond orders larger than 0.100000
B(  0-C ,  1-C ) :   1.1519 B(  0-C ,  8-H ) :   0.9511 B(  0-C ,  9-H ) :   0.9475
B(  0-C , 10-H ) :   0.9531 B(  1-C ,  2-C ) :   1.1097 B(  1-C , 11-H ) :   0.9271
B(  1-C , 12-H ) :   0.9241 B(  2-C ,  3-C ) :   1.0320 B(  2-C , 13-H ) :   0.9104
B(  2-C , 14-H ) :   0.8942 B(  3-C ,  4-O ) :   2.0530 B(  3-C ,  5-O ) :   1.1915
B(  5-O ,  6-C ) :   0.9249 B(  6-C ,  7-C ) :   1.1728 B(  6-C , 15-H ) :   0.9372
B(  6-C , 16-H ) :   0.9132 B(  7-C , 17-H ) :   0.9492 B(  7-C , 18-H ) :   0.9437
B(  7-C , 19-H ) :   0.9438

Dispersion correction           -0.015625342
FINAL SINGLE POINT ENERGY      -385.457916049835

DIPOLE MOMENT
-------------

Method             : SCF
Type of density    : Electron Density
Multiplicity       :   1
Irrep              :   0
Energy             :  -385.5327021228589501 Eh
Relativity type    :
Basis              : AO
                                X                 Y                 Z
Electronic contribution:      2.178973472       5.947895135       0.600812266
Nuclear contribution   :     -2.090900104      -6.294173049      -1.278517420
                        -----------------------------------------
Total Dipole Moment    :      0.088073368      -0.346277914      -0.677705154
                        -----------------------------------------
Magnitude (a.u.)       :      0.766126352
Magnitude (Debye)      :      1.947338429

Rotational constants in cm-1:             0.101694             0.042896             0.038524
Rotational constants in MHz :          3048.699159          1285.998565          1154.912729

                             ****ORCA TERMINATED NORMALLY****
TOTAL RUN TIME: 0 days 0 hours 0 minutes 10 seconds 808 msec
