                         Program Version 6.0.0  -   RELEASE  -
|  1> ! r2scan-3c def2/J RI DEFGRID2 scfconv6 printgap
|  2> %output
|  3>     printlevel normal
|  4> end
|  5> * xyz 0 1
|  6> C -3.7787405246 0.0972149106 0.625103489
|  7> C -2.6574025339 -0.5259747367 -0.1977429508
|  8> C -1.3043780779 0.0946250375 0.1414838679
|  9> C -0.1741087129 -0.5274018013 -0.6897770026
| 10> C 1.1233100563 0.1667790073 -0.3750343502
| 11> O 1.3988427675 1.3039449269 -0.6970537797
| 12> O 1.9328286147 -0.606547568 0.3383737798
| 13> C 3.195751998 -0.0721732158 0.7466662563
| 14> H -4.7338721311 -0.3536645674 0.3689474144
| 15> H -3.6009908923 -0.0522334728 1.6874528109
| 16> H -3.8406854542 1.1663273799 0.435734618
| 17> H -2.6190867196 -1.5997871664 -0.0062502495
| 18> H -2.8635170608 -0.3825588695 -1.2599232564
| 19> H -1.0924482653 -0.0509804224 1.2028802623
| 20> H -1.3315877341 1.1694177462 -0.050884286
| 21> H -0.3905968162 -0.3892410635 -1.7496404086
| 22> H -0.0734536086 -1.5880959091 -0.4648736577
| 23> H 3.0925497707 0.9867414294 0.9862120039
| 24> H 3.9180506681 -0.1905554967 -0.0612725094
| 25> H 3.4965685674 -0.6464475566 1.6177541608
| 26> *
| 27>
| 28>                          ****END OF INPUT****

CARTESIAN COORDINATES (ANGSTROEM)
---------------------------------
  C     -3.778741    0.097215    0.625103
  C     -2.657403   -0.525975   -0.197743
  C     -1.304378    0.094625    0.141484
  C     -0.174109   -0.527402   -0.689777
  C      1.123310    0.166779   -0.375034
  O      1.398843    1.303945   -0.697054
  O      1.932829   -0.606548    0.338374
  C      3.195752   -0.072173    0.746666
  H     -4.733872   -0.353665    0.368947
  H     -3.600991   -0.052233    1.687453
  H     -3.840685    1.166327    0.435735
  H     -2.619087   -1.599787   -0.006250
  H     -2.863517   -0.382559   -1.259923
  H     -1.092448   -0.050980    1.202880
  H     -1.331588    1.169418   -0.050884
  H     -0.390597   -0.389241   -1.749640
  H     -0.073454   -1.588096   -0.464874
  H      3.092550    0.986741    0.986212
  H      3.918051   -0.190555   -0.061273
  H      3.496569   -0.646448    1.617754

 Total Charge           Charge          ....    0
 Multiplicity           Mult            ....    1
 Number of Electrons    NEL             ....   64
 Basis Dimension        Dim             ....  222

ORBITAL ENERGIES
----------------

  NO   OCC          E(Eh)            E(eV)
   0   2.0000     -18.999543      -517.0038
   1   2.0000     -18.927052      -515.0313
   2   2.0000     -10.151212      -276.2285
   3   2.0000     -10.086006      -274.4542
   4   2.0000     -10.041125      -273.2329
   5   2.0000     -10.035333      -273.0753
   6   2.0000     -10.030469      -272.9429
   7   2.0000     -10.019406      -272.6419
   8   2.0000      -1.072616       -29.1874
   9   2.0000      -0.974976       -26.5304
  10   2.0000      -0.779078       -21.1998
  11   2.0000      -0.729376       -19.8473
  12   2.0000      -0.686631       -18.6842
  13   2.0000      -0.616622       -16.7791
  14   2.0000      -0.554757       -15.0957
  15   2.0000      -0.532881       -14.5004
  16   2.0000      -0.465614       -12.6700
  17   2.0000      -0.457466       -12.4483
  18   2.0000      -0.450471       -12.2579
  19   2.0000      -0.433993       -11.8095
  20   2.0000      -0.406661       -11.0658
  21   2.0000      -0.390169       -10.6170
  22   2.0000      -0.385945       -10.5021
  23   2.0000      -0.367864       -10.0101
  24   2.0000      -0.347297        -9.4504
  25   2.0000      -0.329053        -8.9540
  26   2.0000      -0.323428        -8.8009
  27   2.0000      -0.310540        -8.4502
  28   2.0000      -0.301830        -8.2132
  29   2.0000      -0.300420        -8.1748
  30   2.0000      -0.272433        -7.4133
  31   2.0000      -0.235064        -6.3964
  32   0.0000      -0.014667        -0.3991
  33   0.0000       0.066477         1.8089
  34   0.0000       0.096072         2.6143
  35   0.0000       0.100300         2.7293
  36   0.0000       0.120810         3.2874

MULLIKEN ATOMIC CHARGES
-----------------------
   0 C :   -0.465283
   1 C :   -0.238055
   2 C :   -0.274694
   3 C :   -0.328718
   4 C :    0.410861
   5 O :   -0.432722
   6 O :   -0.191239
   7 C :   -0.297698
   8 H :    0.148355
   9 H :    0.142872
  10 H :    0.144769
  11 H :    0.136911
  12 H :    0.139413
  13 H :    0.140807
  14 H :    0.164563
  15 H :    0.162667
  16 H :    0.159598
  17 H :    0.175066
  18 H :    0.153049
  19 H :    0.149480
Sum of atomic charges:   -0.0000000

LOEWDIN ATOMIC CHARGES
----------------------
   0 C :   -0.422652
   1 C :   -0.313390
   2 C :   -0.281317
   3 C :   -0.227393
   4 C :    0.353683
   5 O :   -0.431446
   6 O :   -0.603461
   7 C :   -0.045599
   8 H :    0.151124
   9 H :    0.150243
  10 H :    0.151294
  11 H :    0.151592
  12 H :    0.152296
  13 H :    0.158397
  14 H :    0.166803
  15 H :    0.179123
  16 H :    0.177008
  17 H :    0.185122
  18 H :    0.173139
  19 H :    0.175435

  Mayer bond orders larger than 0.100000
B(  0-C ,  1-C ) :   0.9026 B(  0-C ,  8-H ) :   0.9750 B(  0-C ,  9-H ) :   0.9830
B(  0-C , 10-H ) :   0.9826 B(  1-C ,  2-C ) :   0.9224 B(  1-C , 11-H ) :   0.9705
B(  1-C , 12-H ) :   0.9775 B(  2-C ,  3-C ) :   0.9246 B(  2-C , 13-H ) :   0.9616
B(  2-C , 14-H ) :   0.9678 B(  3-C ,  4-C ) :   0.9641 B(  3-C , 15-H ) :   0.9697
B(  3-C , 16-H ) :   0.9819 B(  4-C ,  5-O ) :   1.8174 B(  4-C ,  6-O ) :   1.0483
B(  6-O ,  7-C ) :   0.8476 B(  7-C , 17-H ) :   0.9647 B(  7-C , 18-H ) :   0.9598
B(  7-C , 19-H ) :   0.9698

Dispersion correction           -0.004890799
FINAL SINGLE POINT ENERGY      -386.230198748415

DIPOLE MOMENT
-------------

Method             : SCF
Type of density    : Electron Density
Multiplicity       :   1
Irrep              :   0
Energy             :  -386.2372344538137554 Eh
Relativity type    :
Basis              : AO
                                X                 Y                 Z
Electronic contribution:      9.331011191       1.125244805      -2.153619097
Nuclear contribution   :     -9.368918278      -1.801331919       2.533488958
                        -----------------------------------------
Total Dipole Moment    :     -0.037907087      -0.676087114       0.379869861
                        -----------------------------------------
Magnitude (a.u.)       :      0.776422465
Magnitude (Debye)      :      1.973509068

Rotational constants in cm-1:             0.184391             0.026019             0.025156
Rotational constants in MHz :          5527.912420           780.032457           754.151554

                             ****ORCA TERMINATED NORMALLY****
TOTAL RUN TIME: 0 days 0 hours 0 minutes 27 seconds 908 msec
