                         Program Version 6.0.0  -   RELEASE  -
|  1> ! r2scan-3c def2/J RI DEFGRID2 scfconv6 printgap
|  2> %output
|  3>     printlevel normal
|  4> end
|  5> %cpcm
|  6>     smd true
|  7>     smdsolvent "water"
|  8> end
|  9> * xyz 0 1
| 10> C -3.7787405246 0.0972149106 0.625103489
| 11> C -2.6574025339 -0.5259747367 -0.1977429508
| 12> C -1.3043780779 0.0946250375 0.1414838679
| 13> C -0.1741087129 -0.5274018013 -0.6897770026
| 14> C 1.1233100563 0.1667790073 -0.3750343502
| 15> O 1.3988427675 1.3039449269 -0.6970537797
| 16> O 1.9328286147 -0.606547568 0.3383737798
| 17> C 3.195751998 -0.0721732158 0.7466662563
| 18> H -4.7338721311 -0.3536645674 0.3689474144
| 19> H -3.6009908923 -0.0522334728 1.6874528109
| 20> H -3.8406854542 1.1663273799 0.435734618
| 21> H -2.6190867196 -1.5997871664 -0.0062502495
| 22> H -2.8635170608 -0.3825588695 -1.2599232564
| 23> H -1.0924482653 -0.0509804224 1.2028802623
| 24> H -1.3315877341 1.1694177462 -0.050884286
| 25> H -0.3905968162 -0.3892410635 -1.7496404086
| 26> H -0.0734536086 -1.5880959091 -0.4648736577
| 27> H 3.0925497707 0.9867414294 0.9862120039
| 28> H 3.9180506681 -0.1905554967 -0.0612725094
| 29> H 3.4965685674 -0.6464475566 1.6177541608
| 30> *
| 31>
| 32>                          ****END OF INPUT****

CARTESIAN COORDINATES (ANGSTROEM)
---------------------------------
  C     -3.778741    0.097215    0.625103
  C     -2.657403   -0.525975   -0.197743
  C     -1.304378    0.094625    0.141484
  C     -0.174109   -0.527402   -0.689777
  C      1.123310    0.166779   -0.375034
  O      1.398843    1.303945   -0.697054
  O      1.932829   -0.606548    0.338374
  C      3.195752   -0.072173    0.746666
  H     -4.733872   -0.353665    0.368947
  H     -3.600991   -0.052233    1.687453
  H     -3.840685    1.166327    0.435735
  H     -2.619087   -1.599787   -0.006250
  H     -2.863517   -0.382559   -1.259923
  H     -1.092448   -0.050980    1.202880
  H     -1.331588    1.169418   -0.050884
  H     -0.390597   -0.389241   -1.749640
  H     -0.073454   -1.588096   -0.464874
  H      3.092550    0.986741    0.986212
  H      3.918051   -0.190555   -0.061273
  H      3.496569   -0.646448    1.617754

 Total Charge           Charge          ....    0
 Multiplicity           Mult            ....    1
 Number of Electrons    NEL             ....   64
 Basis Dimension        Dim             ....  222

ORBITAL ENERGIES
----------------

  NO   OCC          E(Eh)            E(eV)
   0   2.0000     -19.005045      -517.1536
   1   2.0000     -18.943418      -515.4766
   2   2.0000     -10.162039      -276.5231
   3   2.0000     -10.075904      -274.1793
   4   2.0000     -10.035212      -273.0720
   5   2.0000     -10.027303      -272.8568
   6   2.0000     -10.019430      -272.6425
   7   2.0000     -10.008833      -272.3542
   8   2.0000      -1.079822       -29.3834
   9   2.0000      -0.989045       -26.9133
  10   2.0000      -0.772073       -21.0092
  11   2.0000      -0.723667       -19.6920
  12   2.0000      -0.679859       -18.4999
  13   2.0000      -0.609094       -16.5743
  14   2.0000      -0.545594       -14.8464
  15   2.0000      -0.531283       -14.4570
  16   2.0000      -0.467413       -12.7189
  17   2.0000      -0.458809       -12.4848
  18   2.0000      -0.451487       -12.2856
  19   2.0000      -0.433928       -11.8078
  20   2.0000      -0.399213       -10.8631
  21   2.0000      -0.389062       -10.5869
  22   2.0000      -0.377756       -10.2793
  23   2.0000      -0.364695        -9.9238
  24   2.0000      -0.342935        -9.3317
  25   2.0000      -0.325793        -8.8653
  26   2.0000      -0.319290        -8.6883
  27   2.0000      -0.301678        -8.2091
  28   2.0000      -0.295895        -8.0517
  29   2.0000      -0.291323        -7.9273
  30   2.0000      -0.279939        -7.6175
  31   2.0000      -0.251327        -6.8390
  32   0.0000      -0.022904        -0.6232
  33   0.0000       0.071012         1.9323
  34   0.0000       0.105132         2.8608
  35   0.0000       0.109930         2.9914
  36   0.0000       0.130574         3.5531

MULLIKEN ATOMIC CHARGES
-----------------------
   0 C :   -0.509232
   1 C :   -0.251365
   2 C :   -0.272033
   3 C :   -0.353725
   4 C :    0.452445
   5 O :   -0.518412
   6 O :   -0.207057
   7 C :   -0.324871
   8 H :    0.158553
   9 H :    0.155207
  10 H :    0.154487
  11 H :    0.149844
  12 H :    0.151305
  13 H :    0.157442
  14 H :    0.160906
  15 H :    0.185645
  16 H :    0.175758
  17 H :    0.178188
  18 H :    0.179753
  19 H :    0.177164
Sum of atomic charges:   -0.0000000

LOEWDIN ATOMIC CHARGES
----------------------
   0 C :   -0.430918
   1 C :   -0.312635
   2 C :   -0.280731
   3 C :   -0.225179
   4 C :    0.363014
   5 O :   -0.493711
   6 O :   -0.604704
   7 C :   -0.041932
   8 H :    0.153609
   9 H :    0.152997
  10 H :    0.152971
  11 H :    0.155658
  12 H :    0.155550
  13 H :    0.163428
  14 H :    0.164449
  15 H :    0.186899
  16 H :    0.184723
  17 H :    0.186491
  18 H :    0.182331
  19 H :    0.187688

  Mayer bond orders larger than 0.100000
B(  0-C ,  1-C ) :   0.8902 B(  0-C ,  8-H ) :   0.9721 B(  0-C ,  9-H ) :   0.9809
B(  0-C , 10-H ) :   0.9812 B(  1-C ,  2-C ) :   0.9192 B(  1-C , 11-H ) :   0.9701
B(  1-C , 12-H ) :   0.9778 B(  2-C ,  3-C ) :   0.9116 B(  2-C , 13-H ) :   0.9568
B(  2-C , 14-H ) :   0.9700 B(  3-C ,  4-C ) :   0.9638 B(  3-C , 15-H ) :   0.9647
B(  3-C , 16-H ) :   0.9727 B(  4-C ,  5-O ) :   1.7514 B(  4-C ,  6-O ) :   1.0738
B(  6-O ,  7-C ) :   0.8305 B(  7-C , 17-H ) :   0.9606 B(  7-C , 18-H ) :   0.9525
B(  7-C , 19-H ) :   0.9598

Dispersion correction           -0.004890799
FINAL SINGLE POINT ENERGY      -386.234925279853

DIPOLE MOMENT
-------------

Method             : SCF
Type of density    : Electron Density
Multiplicity       :   1
Irrep              :   0
Energy             :  -386.2419609852516942 Eh
Relativity type    :
Basis              : AO
                                X                 Y                 Z
Electronic contribution:      9.329941375       0.796711564      -2.024058395
Nuclear contribution   :     -9.368918278      -1.801331919       2.533488958
                        -----------------------------------------
Total Dipole Moment    :     -0.038976903      -1.004620355       0.509430563
                        -----------------------------------------
Magnitude (a.u.)       :      1.127076198
Magnitude (Debye)      :      2.864800025

Rotational constants in cm-1:             0.184391             0.026019             0.025156
Rotational constants in MHz :          5527.912420           780.032457           754.151554

                             ****ORCA TERMINATED NORMALLY****
TOTAL RUN TIME: 0 days 0 hours 0 minutes 32 seconds 851 msec
