                         Program Version 6.0.0  -   RELEASE  -
|  1> ! pbe def2-sv(p) def2/J RI DEFGRID1 loosescf d4 GCP(DFT/SV(P)) printgap
|  2> %output
|  3>     printlevel normal
|  4> end
|  5> * xyz 0 1
|  6> C -2.2355608765 -1.5733967564 0.5067722467
|  7> C -2.3433646904 -0.2343083308 -0.2128500867
|  8> C -1.42480633 0.8433959243 0.3784357394
|  9> C -0.0007361126 0.7874955254 -0.1139978032
| 10> O 0.6282035366 1.7709242992 -0.4539051709
| 11> O 0.4992626028 -0.4388826454 -0.137946079
| 12> C 1.8574240654 -0.6153186576 -0.5721002769
| 13> C 2.8267289212 -0.4653436252 0.5903556878
| 14> H -2.9064073919 -2.2964107881 0.050145727
| 15> H -1.2218686393 -1.9575983696 0.4516585434
| 16> H -2.5095123198 -1.4636740021 1.5533208215
| 17> H -3.371119957 0.1243956617 -0.1396163816
| 18> H -2.112511162 -0.3649005443 -1.271605466
| 19> H -1.3989892848 0.7412883383 1.4656980889
| 20> H -1.7951016331 1.8411681362 0.1398384344
| 21> H 1.8872359361 -1.6239527207 -0.9855381328
| 22> H 2.0740756786 0.1215207615 -1.3514682252
| 23> H 3.8353246549 -0.6699167944 0.2464252693
| 24> H 2.7857424383 0.5493528049 0.9801403699
| 25> H 2.5697444285 -1.160935105 1.3846005469
| 26> *
| 27>
| 28>                          ****END OF INPUT****

CARTESIAN COORDINATES (ANGSTROEM)
---------------------------------
  C     -2.235561   -1.573397    0.506772
  C     -2.343365   -0.234308   -0.212850
  C     -1.424806    0.843396    0.378436
  C     -0.000736    0.787496   -0.113998
  O      0.628204    1.770924   -0.453905
  O      0.499263   -0.438883   -0.137946
  C      1.857424   -0.615319   -0.572100
  C      2.826729   -0.465344    0.590356
  H     -2.906407   -2.296411    0.050146
  H     -1.221869   -1.957598    0.451659
  H     -2.509512   -1.463674    1.553321
  H     -3.371120    0.124396   -0.139616
  H     -2.112511   -0.364901   -1.271605
  H     -1.398989    0.741288    1.465698
  H     -1.795102    1.841168    0.139838
  H      1.887236   -1.623953   -0.985538
  H      2.074076    0.121521   -1.351468
  H      3.835325   -0.669917    0.246425
  H      2.785742    0.549353    0.980140
  H      2.569744   -1.160935    1.384601

 Total Charge           Charge          ....    0
 Multiplicity           Mult            ....    1
 Number of Electrons    NEL             ....   64
 Basis Dimension        Dim             ....  136

ORBITAL ENERGIES
----------------

  NO   OCC          E(Eh)            E(eV)
   0   2.0000     -18.799773      -511.5678
   1   2.0000     -18.729399      -509.6529
   2   2.0000     -10.005555      -272.2650
   3   2.0000      -9.947603      -270.6880
   4   2.0000      -9.897210      -269.3168
   5   2.0000      -9.892974      -269.2015
   6   2.0000      -9.887592      -269.0551
   7   2.0000      -9.872866      -268.6544
   8   2.0000      -1.006466       -27.3873
   9   2.0000      -0.907019       -24.6812
  10   2.0000      -0.728740       -19.8300
  11   2.0000      -0.694464       -18.8973
  12   2.0000      -0.636293       -17.3144
  13   2.0000      -0.591654       -16.0997
  14   2.0000      -0.535567       -14.5735
  15   2.0000      -0.498497       -13.5648
  16   2.0000      -0.456900       -12.4329
  17   2.0000      -0.423744       -11.5307
  18   2.0000      -0.420080       -11.4310
  19   2.0000      -0.403621       -10.9831
  20   2.0000      -0.383579       -10.4377
  21   2.0000      -0.374781       -10.1983
  22   2.0000      -0.365327        -9.9411
  23   2.0000      -0.356525        -9.7015
  24   2.0000      -0.336509        -9.1569
  25   2.0000      -0.325382        -8.8541
  26   2.0000      -0.312323        -8.4987
  27   2.0000      -0.300680        -8.1819
  28   2.0000      -0.297850        -8.1049
  29   2.0000      -0.281371        -7.6565
  30   2.0000      -0.256530        -6.9805
  31   2.0000      -0.213965        -5.8223
  32   0.0000      -0.019351        -0.5266
  33   0.0000       0.040397         1.0993
  34   0.0000       0.050313         1.3691
  35   0.0000       0.072488         1.9725
  36   0.0000       0.079873         2.1735

MULLIKEN ATOMIC CHARGES
-----------------------
   0 C :   -0.288322
   1 C :   -0.190057
   2 C :   -0.132892
   3 C :    0.095126
   4 O :   -0.209492
   5 O :   -0.233700
   6 C :   -0.012714
   7 C :   -0.303382
   8 H :    0.101152
   9 H :    0.116130
  10 H :    0.094911
  11 H :    0.091638
  12 H :    0.097260
  13 H :    0.110503
  14 H :    0.102831
  15 H :    0.101206
  16 H :    0.108574
  17 H :    0.112450
  18 H :    0.126348
  19 H :    0.112431
Sum of atomic charges:    0.0000000

LOEWDIN ATOMIC CHARGES
----------------------
   0 C :   -0.348560
   1 C :   -0.229073
   2 C :   -0.244509
   3 C :    0.036758
   4 O :   -0.173218
   5 O :   -0.061058
   6 C :   -0.113100
   7 C :   -0.355865
   8 H :    0.118371
   9 H :    0.119309
  10 H :    0.115104
  11 H :    0.119743
  12 H :    0.119287
  13 H :    0.139665
  14 H :    0.136128
  15 H :    0.116154
  16 H :    0.119996
  17 H :    0.130400
  18 H :    0.130543
  19 H :    0.123925

  Mayer bond orders larger than 0.100000
B(  0-C ,  1-C ) :   1.1496 B(  0-C ,  8-H ) :   0.9501 B(  0-C ,  9-H ) :   0.9471
B(  0-C , 10-H ) :   0.9531 B(  1-C ,  2-C ) :   1.0825 B(  1-C , 11-H ) :   0.9266
B(  1-C , 12-H ) :   0.9341 B(  2-C ,  3-C ) :   1.0473 B(  2-C , 13-H ) :   0.8954
B(  2-C , 14-H ) :   0.9093 B(  3-C ,  4-O ) :   2.0481 B(  3-C ,  5-O ) :   1.2011
B(  5-O ,  6-C ) :   0.9180 B(  6-C ,  7-C ) :   1.1748 B(  6-C , 15-H ) :   0.9365
B(  6-C , 16-H ) :   0.9123 B(  7-C , 17-H ) :   0.9445 B(  7-C , 18-H ) :   0.9461
B(  7-C , 19-H ) :   0.9495

Dispersion correction           -0.015327747
FINAL SINGLE POINT ENERGY      -385.455403018132

DIPOLE MOMENT
-------------

Method             : SCF
Type of density    : Electron Density
Multiplicity       :   1
Irrep              :   0
Energy             :  -385.5307452161341075 Eh
Relativity type    :
Basis              : AO
                                X                 Y                 Z
Electronic contribution:      1.997123494       5.040350526      -2.202109173
Nuclear contribution   :     -2.012899620      -5.759038612       2.358781033
                        -----------------------------------------
Total Dipole Moment    :     -0.015776126      -0.718688086       0.156671860
                        -----------------------------------------
Magnitude (a.u.)       :      0.735736042
Magnitude (Debye)      :      1.870092399

Rotational constants in cm-1:             0.109427             0.042024             0.033478
Rotational constants in MHz :          3280.551344          1259.833153          1003.638031

                             ****ORCA TERMINATED NORMALLY****
TOTAL RUN TIME: 0 days 0 hours 0 minutes 12 seconds 742 msec
