                         Program Version 6.0.0  -   RELEASE  -
|  1> ! pbe def2-sv(p) def2/J RI DEFGRID1 loosescf d4 GCP(DFT/SV(P)) printgap
|  2> %output
|  3>     printlevel normal
|  4> end
|  5> * xyz 0 1
|  6> C -3.3911733858 -1.0224522911 0.3087450492
|  7> C -2.0420860637 -0.3786659421 0.6015499969
|  8> C -1.3110624143 -0.0080462894 -0.6978743048
|  9> C 0.0048667767 0.6368856143 -0.3586979509
| 10> O 0.1885272488 1.8330359307 -0.2510590417
| 11> O 0.9528386231 -0.2641611191 -0.1486083154
| 12> C 2.2557201944 0.2062257684 0.2366186527
| 13> C 3.1976556411 -0.9816643521 0.2667761672
| 14> H -3.2603812588 -1.9303345596 -0.2741047989
| 15> H -3.8935229723 -1.2768645326 1.237946126
| 16> H -4.0256425538 -0.3403310384 -0.2512076065
| 17> H -1.4195520676 -1.0688587106 1.1738179288
| 18> H -2.1842656785 0.5245496687 1.1987336549
| 19> H -1.9103916366 0.6991603836 -1.2703857605
| 20> H -1.1265960795 -0.9082005436 -1.2827302466
| 21> H 2.5766584794 0.9647987215 -0.4848706996
| 22> H 2.1727949234 0.6839257932 1.2183532932
| 23> H 2.8409707275 -1.7200915547 0.9784564287
| 24> H 3.2506286455 -1.4398452937 -0.7163312399
| 25> H 4.1872851426 -0.6482921674 0.5609212881
| 26> *
| 27>
| 28>                          ****END OF INPUT****

CARTESIAN COORDINATES (ANGSTROEM)
---------------------------------
  C     -3.391173   -1.022452    0.308745
  C     -2.042086   -0.378666    0.601550
  C     -1.311062   -0.008046   -0.697874
  C      0.004867    0.636886   -0.358698
  O      0.188527    1.833036   -0.251059
  O      0.952839   -0.264161   -0.148608
  C      2.255720    0.206226    0.236619
  C      3.197656   -0.981664    0.266776
  H     -3.260381   -1.930335   -0.274105
  H     -3.893523   -1.276865    1.237946
  H     -4.025643   -0.340331   -0.251208
  H     -1.419552   -1.068859    1.173818
  H     -2.184266    0.524550    1.198734
  H     -1.910392    0.699160   -1.270386
  H     -1.126596   -0.908201   -1.282730
  H      2.576658    0.964799   -0.484871
  H      2.172795    0.683926    1.218353
  H      2.840971   -1.720092    0.978456
  H      3.250629   -1.439845   -0.716331
  H      4.187285   -0.648292    0.560921

 Total Charge           Charge          ....    0
 Multiplicity           Mult            ....    1
 Number of Electrons    NEL             ....   64
 Basis Dimension        Dim             ....  136

ORBITAL ENERGIES
----------------

  NO   OCC          E(Eh)            E(eV)
   0   2.0000     -18.795076      -511.4400
   1   2.0000     -18.729227      -509.6482
   2   2.0000      -9.999147      -272.0906
   3   2.0000      -9.945091      -270.6197
   4   2.0000      -9.895692      -269.2755
   5   2.0000      -9.893807      -269.2242
   6   2.0000      -9.888262      -269.0733
   7   2.0000      -9.880122      -268.8518
   8   2.0000      -1.002195       -27.2711
   9   2.0000      -0.904154       -24.6033
  10   2.0000      -0.729388       -19.8477
  11   2.0000      -0.699319       -19.0294
  12   2.0000      -0.639091       -17.3906
  13   2.0000      -0.578827       -15.7507
  14   2.0000      -0.533953       -14.5296
  15   2.0000      -0.506506       -13.7827
  16   2.0000      -0.446746       -12.1566
  17   2.0000      -0.437287       -11.8992
  18   2.0000      -0.425831       -11.5875
  19   2.0000      -0.396262       -10.7828
  20   2.0000      -0.389369       -10.5953
  21   2.0000      -0.366867        -9.9830
  22   2.0000      -0.360661        -9.8141
  23   2.0000      -0.347971        -9.4688
  24   2.0000      -0.343541        -9.3482
  25   2.0000      -0.326850        -8.8940
  26   2.0000      -0.315047        -8.5729
  27   2.0000      -0.298965        -8.1352
  28   2.0000      -0.298179        -8.1139
  29   2.0000      -0.292000        -7.9457
  30   2.0000      -0.253737        -6.9045
  31   2.0000      -0.211736        -5.7616
  32   0.0000      -0.015998        -0.4353
  33   0.0000       0.038135         1.0377
  34   0.0000       0.047977         1.3055
  35   0.0000       0.076809         2.0901
  36   0.0000       0.079206         2.1553

MULLIKEN ATOMIC CHARGES
-----------------------
   0 C :   -0.242166
   1 C :   -0.241724
   2 C :   -0.111271
   3 C :    0.110215
   4 O :   -0.217516
   5 O :   -0.245019
   6 C :   -0.027848
   7 C :   -0.271921
   8 H :    0.098913
   9 H :    0.107148
  10 H :    0.101379
  11 H :    0.097389
  12 H :    0.103286
  13 H :    0.097818
  14 H :    0.093039
  15 H :    0.106731
  16 H :    0.102985
  17 H :    0.113209
  18 H :    0.114486
  19 H :    0.110866
Sum of atomic charges:   -0.0000000

LOEWDIN ATOMIC CHARGES
----------------------
   0 C :   -0.339064
   1 C :   -0.225287
   2 C :   -0.241825
   3 C :    0.034539
   4 O :   -0.174081
   5 O :   -0.072142
   6 C :   -0.108410
   7 C :   -0.350903
   8 H :    0.118268
   9 H :    0.121843
  10 H :    0.119387
  11 H :    0.118259
  12 H :    0.122075
  13 H :    0.133483
  14 H :    0.129531
  15 H :    0.116790
  16 H :    0.115218
  17 H :    0.125823
  18 H :    0.126382
  19 H :    0.130115

  Mayer bond orders larger than 0.100000
B(  0-C ,  1-C ) :   1.1581 B(  0-C ,  8-H ) :   0.9533 B(  0-C ,  9-H ) :   0.9516
B(  0-C , 10-H ) :   0.9532 B(  1-C ,  2-C ) :   1.1297 B(  1-C , 11-H ) :   0.9267
B(  1-C , 12-H ) :   0.9267 B(  2-C ,  3-C ) :   1.0337 B(  2-C , 13-H ) :   0.9028
B(  2-C , 14-H ) :   0.8993 B(  3-C ,  4-O ) :   2.0497 B(  3-C ,  5-O ) :   1.2026
B(  5-O ,  6-C ) :   0.9119 B(  6-C ,  7-C ) :   1.1490 B(  6-C , 15-H ) :   0.9292
B(  6-C , 16-H ) :   0.9337 B(  7-C , 17-H ) :   0.9492 B(  7-C , 18-H ) :   0.9508
B(  7-C , 19-H ) :   0.9446

Dispersion correction           -0.014360601
FINAL SINGLE POINT ENERGY      -385.457276033687

DIPOLE MOMENT
-------------

Method             : SCF
Type of density    : Electron Density
Multiplicity       :   1
Irrep              :   0
Energy             :  -385.5321994276185364 Eh
Relativity type    :
Basis              : AO
                                X                 Y                 Z
Electronic contribution:      2.783033063       5.262618154      -1.836022621
Nuclear contribution   :     -2.602450502      -6.037653437       1.953527102
                        -----------------------------------------
Total Dipole Moment    :      0.180582561      -0.775035283       0.117504480
                        -----------------------------------------
Magnitude (a.u.)       :      0.804423430
Magnitude (Debye)      :      2.044681864

Rotational constants in cm-1:             0.132875             0.031613             0.027343
Rotational constants in MHz :          3983.505690           947.732831           819.718683

                             ****ORCA TERMINATED NORMALLY****
TOTAL RUN TIME: 0 days 0 hours 0 minutes 10 seconds 525 msec
