                         Program Version 6.0.0  -   RELEASE  -
|  1> ! r2scan-3c def2/J RI DEFGRID2 scfconv6 printgap
|  2> %output
|  3>     printlevel normal
|  4> end
|  5> * xyz 0 1
|  6> C 2.430497662 -0.2955703642 -0.1274053735
|  7> C 1.0305873473 0.2415282971 -0.4003346796
|  8> C 0.0500067317 -0.1639479461 0.6989988432
|  9> C -1.3479554072 0.426162005 0.5091002312
| 10> N -2.0526856318 -0.2289289137 -0.586375353
| 11> H 2.4152722427 -1.3814192273 -0.0719780516
| 12> H 3.114486548 -8.21384e-05 -0.9192383552
| 13> H 2.8088811283 0.0901634777 0.8165327565
| 14> H 1.0671787601 1.3320998279 -0.467117222
| 15> H 0.6845891817 -0.1427336993 -1.361684874
| 16> H -0.0358299999 -1.2507409322 0.7289662614
| 17> H 0.4381377207 0.1744689051 1.6618140946
| 18> H -1.2601588179 1.518629225 0.3722723309
| 19> H -1.9339230018 0.2512867524 1.4161313886
| 20> H -1.5667029023 -0.0526824699 -1.4591868769
| 21> H -2.983720387 0.1616599701 -0.6754444293
| 22> *
| 23>
| 24>                          ****END OF INPUT****

CARTESIAN COORDINATES (ANGSTROEM)
---------------------------------
  C      2.430498   -0.295570   -0.127405
  C      1.030587    0.241528   -0.400335
  C      0.050007   -0.163948    0.698999
  C     -1.347955    0.426162    0.509100
  N     -2.052686   -0.228929   -0.586375
  H      2.415272   -1.381419   -0.071978
  H      3.114487   -0.000082   -0.919238
  H      2.808881    0.090163    0.816533
  H      1.067179    1.332100   -0.467117
  H      0.684589   -0.142734   -1.361685
  H     -0.035830   -1.250741    0.728966
  H      0.438138    0.174469    1.661814
  H     -1.260159    1.518629    0.372272
  H     -1.933923    0.251287    1.416131
  H     -1.566703   -0.052682   -1.459187
  H     -2.983720    0.161660   -0.675444

 Total Charge           Charge          ....    0
 Multiplicity           Mult            ....    1
 Number of Electrons    NEL             ....   42
 Basis Dimension        Dim             ....  155

ORBITAL ENERGIES
----------------

  NO   OCC          E(Eh)            E(eV)
   0   2.0000     -14.133132      -384.5821
   1   2.0000     -10.046857      -273.3889
   2   2.0000     -10.024543      -272.7817
   3   2.0000     -10.018950      -272.6295
   4   2.0000     -10.015289      -272.5299
   5   2.0000      -0.844989       -22.9933
   6   2.0000      -0.751113       -20.4388
   7   2.0000      -0.672763       -18.3068
   8   2.0000      -0.586999       -15.9731
   9   2.0000      -0.536002       -14.5854
  10   2.0000      -0.458232       -12.4691
  11   2.0000      -0.441559       -12.0154
  12   2.0000      -0.402563       -10.9543
  13   2.0000      -0.396243       -10.7823
  14   2.0000      -0.365106        -9.9350
  15   2.0000      -0.342820        -9.3286
  16   2.0000      -0.335110        -9.1188
  17   2.0000      -0.302736        -8.2379
  18   2.0000      -0.295935        -8.0528
  19   2.0000      -0.286480        -7.7955
  20   2.0000      -0.203849        -5.5470
  21   0.0000       0.075934         2.0663
  22   0.0000       0.106712         2.9038
  23   0.0000       0.114920         3.1271
  24   0.0000       0.129109         3.5132
  25   0.0000       0.138465         3.7678

MULLIKEN ATOMIC CHARGES
-----------------------
   0 C :   -0.472797
   1 C :   -0.243671
   2 C :   -0.261995
   3 C :   -0.176391
   4 N :   -0.574909
   5 H :    0.143934
   6 H :    0.145606
   7 H :    0.141846
   8 H :    0.137863
   9 H :    0.129698
  10 H :    0.153573
  11 H :    0.131717
  12 H :    0.122725
  13 H :    0.138112
  14 H :    0.244619
  15 H :    0.240070
Sum of atomic charges:   -0.0000000

LOEWDIN ATOMIC CHARGES
----------------------
   0 C :   -0.423594
   1 C :   -0.318276
   2 C :   -0.290396
   3 C :   -0.075854
   4 N :   -0.748669
   5 H :    0.150967
   6 H :    0.149579
   7 H :    0.149563
   8 H :    0.151173
   9 H :    0.148095
  10 H :    0.163811
  11 H :    0.155618
  12 H :    0.147111
  13 H :    0.170862
  14 H :    0.234356
  15 H :    0.235654

  Mayer bond orders larger than 0.100000
B(  0-C ,  1-C ) :   0.9087 B(  0-C ,  5-H ) :   0.9823 B(  0-C ,  6-H ) :   0.9754
B(  0-C ,  7-H ) :   0.9846 B(  1-C ,  2-C ) :   0.9327 B(  1-C ,  8-H ) :   0.9673
B(  1-C ,  9-H ) :   0.9706 B(  2-C ,  3-C ) :   0.9412 B(  2-C , 10-H ) :   0.9675
B(  2-C , 11-H ) :   0.9711 B(  3-C ,  4-N ) :   0.9161 B(  3-C , 12-H ) :   0.9815
B(  3-C , 13-H ) :   0.9763 B(  4-N , 14-H ) :   0.9250 B(  4-N , 15-H ) :   0.9188

Dispersion correction           -0.003409023
FINAL SINGLE POINT ENERGY      -213.722907396429

DIPOLE MOMENT
-------------

Method             : SCF
Type of density    : Electron Density
Multiplicity       :   1
Irrep              :   0
Energy             :  -213.7300050372097076 Eh
Relativity type    :
Basis              : AO
                                X                 Y                 Z
Electronic contribution:     -2.547574984      -0.198370303      -0.137247648
Nuclear contribution   :      2.567050963       0.656072188       0.035323401
                        -----------------------------------------
Total Dipole Moment    :      0.019475978       0.457701885      -0.101924246
                        -----------------------------------------
Magnitude (a.u.)       :      0.469317463
Magnitude (Debye)      :      1.192910189

Rotational constants in cm-1:             0.423484             0.076900             0.071617
Rotational constants in MHz :         12695.729428          2305.411688          2147.025567

                             ****ORCA TERMINATED NORMALLY****
TOTAL RUN TIME: 0 days 0 hours 0 minutes 17 seconds 474 msec
