                         Program Version 6.0.0  -   RELEASE  -
|  1> ! r2scan-3c def2/J RI DEFGRID2 scfconv6 printgap
|  2> %output
|  3>     printlevel normal
|  4> end
|  5> %cpcm
|  6>     smd true
|  7>     smdsolvent "water"
|  8> end
|  9> * xyz 0 1
| 10> C 2.430497662 -0.2955703642 -0.1274053735
| 11> C 1.0305873473 0.2415282971 -0.4003346796
| 12> C 0.0500067317 -0.1639479461 0.6989988432
| 13> C -1.3479554072 0.426162005 0.5091002312
| 14> N -2.0526856318 -0.2289289137 -0.586375353
| 15> H 2.4152722427 -1.3814192273 -0.0719780516
| 16> H 3.114486548 -8.21384e-05 -0.9192383552
| 17> H 2.8088811283 0.0901634777 0.8165327565
| 18> H 1.0671787601 1.3320998279 -0.467117222
| 19> H 0.6845891817 -0.1427336993 -1.361684874
| 20> H -0.0358299999 -1.2507409322 0.7289662614
| 21> H 0.4381377207 0.1744689051 1.6618140946
| 22> H -1.2601588179 1.518629225 0.3722723309
| 23> H -1.9339230018 0.2512867524 1.4161313886
| 24> H -1.5667029023 -0.0526824699 -1.4591868769
| 25> H -2.983720387 0.1616599701 -0.6754444293
| 26> *
| 27>
| 28>                          ****END OF INPUT****

CARTESIAN COORDINATES (ANGSTROEM)
---------------------------------
  C      2.430498   -0.295570   -0.127405
  C      1.030587    0.241528   -0.400335
  C      0.050007   -0.163948    0.698999
  C     -1.347955    0.426162    0.509100
  N     -2.052686   -0.228929   -0.586375
  H      2.415272   -1.381419   -0.071978
  H      3.114487   -0.000082   -0.919238
  H      2.808881    0.090163    0.816533
  H      1.067179    1.332100   -0.467117
  H      0.684589   -0.142734   -1.361685
  H     -0.035830   -1.250741    0.728966
  H      0.438138    0.174469    1.661814
  H     -1.260159    1.518629    0.372272
  H     -1.933923    0.251287    1.416131
  H     -1.566703   -0.052682   -1.459187
  H     -2.983720    0.161660   -0.675444

 Total Charge           Charge          ....    0
 Multiplicity           Mult            ....    1
 Number of Electrons    NEL             ....   42
 Basis Dimension        Dim             ....  155

ORBITAL ENERGIES
----------------

  NO   OCC          E(Eh)            E(eV)
   0   2.0000     -14.127401      -384.4261
   1   2.0000     -10.040795      -273.2239
   2   2.0000     -10.015800      -272.5438
   3   2.0000     -10.013059      -272.4692
   4   2.0000     -10.007193      -272.3096
   5   2.0000      -0.839540       -22.8450
   6   2.0000      -0.743848       -20.2411
   7   2.0000      -0.666334       -18.1319
   8   2.0000      -0.580024       -15.7833
   9   2.0000      -0.529249       -14.4016
  10   2.0000      -0.451210       -12.2781
  11   2.0000      -0.435218       -11.8429
  12   2.0000      -0.395627       -10.7656
  13   2.0000      -0.389370       -10.5953
  14   2.0000      -0.357878        -9.7384
  15   2.0000      -0.336192        -9.1483
  16   2.0000      -0.328793        -8.9469
  17   2.0000      -0.295624        -8.0443
  18   2.0000      -0.288223        -7.8429
  19   2.0000      -0.279286        -7.5998
  20   2.0000      -0.204833        -5.5738
  21   0.0000       0.087389         2.3780
  22   0.0000       0.114272         3.1095
  23   0.0000       0.123825         3.3694
  24   0.0000       0.138721         3.7748
  25   0.0000       0.145963         3.9719

MULLIKEN ATOMIC CHARGES
-----------------------
   0 C :   -0.513134
   1 C :   -0.245200
   2 C :   -0.283928
   3 C :   -0.202818
   4 N :   -0.663391
   5 H :    0.152798
   6 H :    0.155784
   7 H :    0.153434
   8 H :    0.146904
   9 H :    0.146373
  10 H :    0.150448
  11 H :    0.146059
  12 H :    0.134081
  13 H :    0.151745
  14 H :    0.288553
  15 H :    0.282292
Sum of atomic charges:   -0.0000000

LOEWDIN ATOMIC CHARGES
----------------------
   0 C :   -0.432766
   1 C :   -0.319430
   2 C :   -0.295334
   3 C :   -0.078926
   4 N :   -0.771326
   5 H :    0.152305
   6 H :    0.152005
   7 H :    0.151977
   8 H :    0.154408
   9 H :    0.153141
  10 H :    0.160046
  11 H :    0.159532
  12 H :    0.152373
  13 H :    0.173158
  14 H :    0.243749
  15 H :    0.245087

  Mayer bond orders larger than 0.100000
B(  0-C ,  1-C ) :   0.8947 B(  0-C ,  5-H ) :   0.9808 B(  0-C ,  6-H ) :   0.9726
B(  0-C ,  7-H ) :   0.9820 B(  1-C ,  2-C ) :   0.9274 B(  1-C ,  8-H ) :   0.9656
B(  1-C ,  9-H ) :   0.9693 B(  2-C ,  3-C ) :   0.9267 B(  2-C , 10-H ) :   0.9730
B(  2-C , 11-H ) :   0.9699 B(  3-C ,  4-N ) :   0.9258 B(  3-C , 12-H ) :   0.9846
B(  3-C , 13-H ) :   0.9782 B(  4-N , 14-H ) :   0.9077 B(  4-N , 15-H ) :   0.9023

Dispersion correction           -0.003409023
FINAL SINGLE POINT ENERGY      -213.728097091918

DIPOLE MOMENT
-------------

Method             : SCF
Type of density    : Electron Density
Multiplicity       :   1
Irrep              :   0
Energy             :  -213.7351947326992558 Eh
Relativity type    :
Basis              : AO
                                X                 Y                 Z
Electronic contribution:     -2.549591773       0.008560596      -0.192116940
Nuclear contribution   :      2.567050963       0.656072188       0.035323401
                        -----------------------------------------
Total Dipole Moment    :      0.017459190       0.664632784      -0.156793539
                        -----------------------------------------
Magnitude (a.u.)       :      0.683100121
Magnitude (Debye)      :      1.736302520

Rotational constants in cm-1:             0.423484             0.076900             0.071617
Rotational constants in MHz :         12695.729428          2305.411688          2147.025567

                             ****ORCA TERMINATED NORMALLY****
TOTAL RUN TIME: 0 days 0 hours 0 minutes 20 seconds 989 msec
