                         Program Version 6.0.0  -   RELEASE  -
|  1> ! pbe def2-sv(p) def2/J RI DEFGRID1 loosescf d4 GCP(DFT/SV(P)) printgap
|  2> %output
|  3>     printlevel normal
|  4> end
|  5> * xyz 0 1
|  6> C -3.4809121181 0.3899858193 -0.0791989901
|  7> C -2.6004086872 -0.7134165597 0.4958245409
|  8> C -1.1811026023 -0.7105922819 -0.0721303412
|  9> C -0.3804764468 0.5323423877 0.3467493626
| 10> C 1.0156742529 0.4162125706 -0.1985536876
| 11> O 1.385411846 0.8465774976 -1.2714836155
| 12> O 1.8088141377 -0.2623361528 0.6234406659
| 13> C 3.1549485465 -0.4986533105 0.2032545089
| 14> H -3.1232609487 1.3722314245 0.2167230424
| 15> H -3.4923270582 0.3394472922 -1.165516224
| 16> H -4.5009379901 0.2798261926 0.2800348442
| 17> H -2.5540679506 -0.6148229419 1.5816782969
| 18> H -3.0526981514 -1.6806090034 0.2683698497
| 19> H -1.2221313654 -0.7552687252 -1.1626774485
| 20> H -0.6537894618 -1.5983454667 0.2834839103
| 21> H -0.3356445693 0.5894790682 1.4335146388
| 22> H -0.8377086741 1.4303453776 -0.0648065318
| 23> H 3.7079137437 0.44117247 0.1862576092
| 24> H 3.1633376556 -0.9335501008 -0.7969426598
| 25> H 3.574814623 -1.183259236 0.9334298812
| 26> *
| 27>
| 28>                          ****END OF INPUT****

CARTESIAN COORDINATES (ANGSTROEM)
---------------------------------
  C     -3.480912    0.389986   -0.079199
  C     -2.600409   -0.713417    0.495825
  C     -1.181103   -0.710592   -0.072130
  C     -0.380476    0.532342    0.346749
  C      1.015674    0.416213   -0.198554
  O      1.385412    0.846577   -1.271484
  O      1.808814   -0.262336    0.623441
  C      3.154949   -0.498653    0.203255
  H     -3.123261    1.372231    0.216723
  H     -3.492327    0.339447   -1.165516
  H     -4.500938    0.279826    0.280035
  H     -2.554068   -0.614823    1.581678
  H     -3.052698   -1.680609    0.268370
  H     -1.222131   -0.755269   -1.162677
  H     -0.653789   -1.598345    0.283484
  H     -0.335645    0.589479    1.433515
  H     -0.837709    1.430345   -0.064807
  H      3.707914    0.441172    0.186258
  H      3.163338   -0.933550   -0.796943
  H      3.574815   -1.183259    0.933430

 Total Charge           Charge          ....    0
 Multiplicity           Mult            ....    1
 Number of Electrons    NEL             ....   64
 Basis Dimension        Dim             ....  136

ORBITAL ENERGIES
----------------

  NO   OCC          E(Eh)            E(eV)
   0   2.0000     -18.798254      -511.5265
   1   2.0000     -18.729324      -509.6508
   2   2.0000     -10.002467      -272.1810
   3   2.0000      -9.940897      -270.5056
   4   2.0000      -9.895777      -269.2778
   5   2.0000      -9.894058      -269.2310
   6   2.0000      -9.888967      -269.0925
   7   2.0000      -9.877611      -268.7835
   8   2.0000      -1.003806       -27.3150
   9   2.0000      -0.905971       -24.6527
  10   2.0000      -0.734020       -19.9737
  11   2.0000      -0.685658       -18.6577
  12   2.0000      -0.643539       -17.5116
  13   2.0000      -0.586910       -15.9706
  14   2.0000      -0.518307       -14.1038
  15   2.0000      -0.505253       -13.7486
  16   2.0000      -0.450323       -12.2539
  17   2.0000      -0.433617       -11.7993
  18   2.0000      -0.426874       -11.6158
  19   2.0000      -0.403737       -10.9862
  20   2.0000      -0.397076       -10.8050
  21   2.0000      -0.376916       -10.2564
  22   2.0000      -0.360130        -9.7996
  23   2.0000      -0.354769        -9.6538
  24   2.0000      -0.336619        -9.1599
  25   2.0000      -0.322277        -8.7696
  26   2.0000      -0.305763        -8.3202
  27   2.0000      -0.294286        -8.0079
  28   2.0000      -0.292072        -7.9477
  29   2.0000      -0.286448        -7.7946
  30   2.0000      -0.255552        -6.9539
  31   2.0000      -0.213637        -5.8133
  32   0.0000      -0.017270        -0.4700
  33   0.0000       0.037032         1.0077
  34   0.0000       0.056385         1.5343
  35   0.0000       0.067651         1.8409
  36   0.0000       0.070454         1.9172

MULLIKEN ATOMIC CHARGES
-----------------------
   0 C :   -0.297492
   1 C :   -0.142444
   2 C :   -0.216154
   3 C :   -0.121590
   4 C :    0.103216
   5 O :   -0.213439
   6 O :   -0.244469
   7 C :   -0.107511
   8 H :    0.110616
   9 H :    0.102941
  10 H :    0.105549
  11 H :    0.083368
  12 H :    0.088763
  13 H :    0.098411
  14 H :    0.094004
  15 H :    0.092085
  16 H :    0.106221
  17 H :    0.118089
  18 H :    0.119783
  19 H :    0.120052
Sum of atomic charges:    0.0000000

LOEWDIN ATOMIC CHARGES
----------------------
   0 C :   -0.343187
   1 C :   -0.233116
   2 C :   -0.218260
   3 C :   -0.242732
   4 C :    0.035067
   5 O :   -0.172002
   6 O :   -0.076762
   7 C :   -0.203502
   8 H :    0.117467
   9 H :    0.119391
  10 H :    0.121222
  11 H :    0.115059
  12 H :    0.118431
  13 H :    0.120925
  14 H :    0.118693
  15 H :    0.130149
  16 H :    0.134335
  17 H :    0.119309
  18 H :    0.119646
  19 H :    0.119868

  Mayer bond orders larger than 0.100000
B(  0-C ,  1-C ) :   1.1524 B(  0-C ,  8-H ) :   0.9516 B(  0-C ,  9-H ) :   0.9544
B(  0-C , 10-H ) :   0.9515 B(  1-C ,  2-C ) :   1.1251 B(  1-C , 11-H ) :   0.9241
B(  1-C , 12-H ) :   0.9251 B(  2-C ,  3-C ) :   1.1260 B(  2-C , 13-H ) :   0.9214
B(  2-C , 14-H ) :   0.9219 B(  3-C ,  4-C ) :   1.0283 B(  3-C , 15-H ) :   0.8984
B(  3-C , 16-H ) :   0.8958 B(  4-C ,  5-O ) :   2.0599 B(  4-C ,  6-O ) :   1.2060
B(  6-O ,  7-C ) :   0.9400 B(  7-C , 17-H ) :   0.9554 B(  7-C , 18-H ) :   0.9482
B(  7-C , 19-H ) :   0.9591

Dispersion correction           -0.014921735
FINAL SINGLE POINT ENERGY      -385.451774891558

DIPOLE MOMENT
-------------

Method             : SCF
Type of density    : Electron Density
Multiplicity       :   1
Irrep              :   0
Energy             :  -385.5265994161383105 Eh
Relativity type    :
Basis              : AO
                                X                 Y                 Z
Electronic contribution:      8.687177183       1.719140739      -1.261941340
Nuclear contribution   :     -8.702447338      -2.161648128       1.860672191
                        -----------------------------------------
Total Dipole Moment    :     -0.015270156      -0.442507389       0.598730851
                        -----------------------------------------
Magnitude (a.u.)       :      0.744664084
Magnitude (Debye)      :      1.892785680

Rotational constants in cm-1:             0.178501             0.028960             0.026738
Rotational constants in MHz :          5351.318375           868.189329           801.587043

                             ****ORCA TERMINATED NORMALLY****
TOTAL RUN TIME: 0 days 0 hours 0 minutes 10 seconds 303 msec
