                         Program Version 6.0.0  -   RELEASE  -
|  1> ! r2scan-3c def2/J RI DEFGRID2 scfconv6 printgap
|  2> %output
|  3>     printlevel normal
|  4> end
|  5> * xyz 0 1
|  6> C 2.2635653224 1.1600195597 -0.0208871064
|  7> C 1.2431740701 0.0723232736 0.3103113318
|  8> C 1.7993777986 -1.2959137891 -0.0934131086
|  9> N -0.0087253562 0.3396163034 -0.3889091489
| 10> C -1.2447822739 0.0212409796 0.3168071916
| 11> C -1.7367506324 -1.3759422908 -0.0708937716
| 12> C -2.3154763252 1.0565426774 -0.0233059089
| 13> H 1.9054492168 2.1359005103 0.3021958054
| 14> H 3.2062174584 0.9581211202 0.4806944012
| 15> H 2.437707002 1.1866511889 -1.0937041173
| 16> H 1.0764347597 0.069940611 1.405317474
| 17> H 1.9193566545 -1.3353723879 -1.172047827
| 18> H 1.127032675 -2.0926562638 0.2082813659
| 19> H 2.7640544315 -1.4610320945 0.3794288138
| 20> H -0.0295847834 1.3104026869 -0.6765868589
| 21> H -1.0760669969 0.038440026 1.4115552587
| 22> H -2.6971052354 -1.5767340117 0.39686212
| 23> H -1.8459012948 -1.4359809897 -1.1497331934
| 24> H -1.0327404986 -2.1379697742 0.2480036309
| 25> H -3.2457909338 0.8176198324 0.484988434
| 26> H -2.4947506798 1.0619085525 -1.0955527707
| 27> H -2.0015944976 2.0518220366 0.2863163495
| 28> *
| 29>
| 30>                          ****END OF INPUT****

CARTESIAN COORDINATES (ANGSTROEM)
---------------------------------
  C      2.263565    1.160020   -0.020887
  C      1.243174    0.072323    0.310311
  C      1.799378   -1.295914   -0.093413
  N     -0.008725    0.339616   -0.388909
  C     -1.244782    0.021241    0.316807
  C     -1.736751   -1.375942   -0.070894
  C     -2.315476    1.056543   -0.023306
  H      1.905449    2.135901    0.302196
  H      3.206217    0.958121    0.480694
  H      2.437707    1.186651   -1.093704
  H      1.076435    0.069941    1.405317
  H      1.919357   -1.335372   -1.172048
  H      1.127033   -2.092656    0.208281
  H      2.764054   -1.461032    0.379429
  H     -0.029585    1.310403   -0.676587
  H     -1.076067    0.038440    1.411555
  H     -2.697105   -1.576734    0.396862
  H     -1.845901   -1.435981   -1.149733
  H     -1.032740   -2.137970    0.248004
  H     -3.245791    0.817620    0.484988
  H     -2.494751    1.061909   -1.095553
  H     -2.001594    2.051822    0.286316

 Total Charge           Charge          ....    0
 Multiplicity           Mult            ....    1
 Number of Electrons    NEL             ....   58
 Basis Dimension        Dim             ....  213

ORBITAL ENERGIES
----------------

  NO   OCC          E(Eh)            E(eV)
   0   2.0000     -14.132468      -384.5640
   1   2.0000     -10.055897      -273.6349
   2   2.0000     -10.055865      -273.6340
   3   2.0000     -10.018477      -272.6166
   4   2.0000     -10.018436      -272.6155
   5   2.0000     -10.006802      -272.2989
   6   2.0000     -10.006694      -272.2960
   7   2.0000      -0.870495       -23.6874
   8   2.0000      -0.752974       -20.4895
   9   2.0000      -0.693723       -18.8772
  10   2.0000      -0.653995       -17.7961
  11   2.0000      -0.645207       -17.5570
  12   2.0000      -0.547459       -14.8971
  13   2.0000      -0.536723       -14.6050
  14   2.0000      -0.446135       -12.1400
  15   2.0000      -0.437078       -11.8935
  16   2.0000      -0.426516       -11.6061
  17   2.0000      -0.398557       -10.8453
  18   2.0000      -0.373572       -10.1654
  19   2.0000      -0.360040        -9.7972
  20   2.0000      -0.357438        -9.7264
  21   2.0000      -0.349019        -9.4973
  22   2.0000      -0.346185        -9.4202
  23   2.0000      -0.323211        -8.7950
  24   2.0000      -0.318109        -8.6562
  25   2.0000      -0.300886        -8.1875
  26   2.0000      -0.299252        -8.1431
  27   2.0000      -0.283249        -7.7076
  28   2.0000      -0.186423        -5.0728
  29   0.0000       0.074151         2.0177
  30   0.0000       0.105689         2.8759
  31   0.0000       0.111312         3.0289
  32   0.0000       0.117453         3.1961
  33   0.0000       0.123190         3.3522

MULLIKEN ATOMIC CHARGES
-----------------------
   0 C :   -0.508946
   1 C :    0.005806
   2 C :   -0.467281
   3 N :   -0.322388
   4 C :    0.006595
   5 C :   -0.468894
   6 C :   -0.508564
   7 H :    0.143806
   8 H :    0.148057
   9 H :    0.160559
  10 H :    0.128141
  11 H :    0.156953
  12 H :    0.135235
  13 H :    0.137688
  14 H :    0.241877
  15 H :    0.128395
  16 H :    0.137487
  17 H :    0.157816
  18 H :    0.135439
  19 H :    0.148117
  20 H :    0.160638
  21 H :    0.143463
Sum of atomic charges:   -0.0000000

LOEWDIN ATOMIC CHARGES
----------------------
   0 C :   -0.391069
   1 C :   -0.016565
   2 C :   -0.392603
   3 N :   -0.833293
   4 C :   -0.016545
   5 C :   -0.392655
   6 C :   -0.390953
   7 H :    0.152237
   8 H :    0.157517
   9 H :    0.158939
  10 H :    0.160307
  11 H :    0.160202
  12 H :    0.151546
  13 H :    0.149427
  14 H :    0.253365
  15 H :    0.160022
  16 H :    0.149550
  17 H :    0.160477
  18 H :    0.151381
  19 H :    0.157478
  20 H :    0.159044
  21 H :    0.152188

  Mayer bond orders larger than 0.100000
B(  0-C ,  1-C ) :   0.9106 B(  0-C ,  7-H ) :   0.9751 B(  0-C ,  8-H ) :   0.9752
B(  0-C ,  9-H ) :   0.9825 B(  1-C ,  2-C ) :   0.9420 B(  1-C ,  3-N ) :   0.8460
B(  1-C , 10-H ) :   0.9521 B(  2-C , 11-H ) :   0.9766 B(  2-C , 12-H ) :   0.9665
B(  2-C , 13-H ) :   0.9835 B(  3-N ,  4-C ) :   0.8489 B(  3-N , 14-H ) :   0.9155
B(  4-C ,  5-C ) :   0.9390 B(  4-C ,  6-C ) :   0.9110 B(  4-C , 15-H ) :   0.9527
B(  5-C , 16-H ) :   0.9829 B(  5-C , 17-H ) :   0.9769 B(  5-C , 18-H ) :   0.9671
B(  6-C , 19-H ) :   0.9752 B(  6-C , 20-H ) :   0.9824 B(  6-C , 21-H ) :   0.9751

Dispersion correction           -0.005942876
FINAL SINGLE POINT ENERGY      -292.316178878001

DIPOLE MOMENT
-------------

Method             : SCF
Type of density    : Electron Density
Multiplicity       :   1
Irrep              :   0
Energy             :  -292.3246917471212782 Eh
Relativity type    :
Basis              : AO
                                X                 Y                 Z
Electronic contribution:     -0.018170166       0.690328883      -0.120918644
Nuclear contribution   :      0.011883190      -0.381795221       0.388167964
                        -----------------------------------------
Total Dipole Moment    :     -0.006286976       0.308533661       0.267249320
                        -----------------------------------------
Magnitude (a.u.)       :      0.408233690
Magnitude (Debye)      :      1.037647576

Rotational constants in cm-1:             0.138559             0.052444             0.040867
Rotational constants in MHz :          4153.892445          1572.221962          1225.147346

                             ****ORCA TERMINATED NORMALLY****
TOTAL RUN TIME: 0 days 0 hours 0 minutes 25 seconds 644 msec
