                         Program Version 6.0.0  -   RELEASE  -
|  1> ! r2scan-3c def2/J RI DEFGRID2 scfconv6 printgap
|  2> %output
|  3>     printlevel normal
|  4> end
|  5> %cpcm
|  6>     smd true
|  7>     smdsolvent "water"
|  8> end
|  9> * xyz 0 1
| 10> C 2.2635653224 1.1600195597 -0.0208871064
| 11> C 1.2431740701 0.0723232736 0.3103113318
| 12> C 1.7993777986 -1.2959137891 -0.0934131086
| 13> N -0.0087253562 0.3396163034 -0.3889091489
| 14> C -1.2447822739 0.0212409796 0.3168071916
| 15> C -1.7367506324 -1.3759422908 -0.0708937716
| 16> C -2.3154763252 1.0565426774 -0.0233059089
| 17> H 1.9054492168 2.1359005103 0.3021958054
| 18> H 3.2062174584 0.9581211202 0.4806944012
| 19> H 2.437707002 1.1866511889 -1.0937041173
| 20> H 1.0764347597 0.069940611 1.405317474
| 21> H 1.9193566545 -1.3353723879 -1.172047827
| 22> H 1.127032675 -2.0926562638 0.2082813659
| 23> H 2.7640544315 -1.4610320945 0.3794288138
| 24> H -0.0295847834 1.3104026869 -0.6765868589
| 25> H -1.0760669969 0.038440026 1.4115552587
| 26> H -2.6971052354 -1.5767340117 0.39686212
| 27> H -1.8459012948 -1.4359809897 -1.1497331934
| 28> H -1.0327404986 -2.1379697742 0.2480036309
| 29> H -3.2457909338 0.8176198324 0.484988434
| 30> H -2.4947506798 1.0619085525 -1.0955527707
| 31> H -2.0015944976 2.0518220366 0.2863163495
| 32> *
| 33>
| 34>                          ****END OF INPUT****

CARTESIAN COORDINATES (ANGSTROEM)
---------------------------------
  C      2.263565    1.160020   -0.020887
  C      1.243174    0.072323    0.310311
  C      1.799378   -1.295914   -0.093413
  N     -0.008725    0.339616   -0.388909
  C     -1.244782    0.021241    0.316807
  C     -1.736751   -1.375942   -0.070894
  C     -2.315476    1.056543   -0.023306
  H      1.905449    2.135901    0.302196
  H      3.206217    0.958121    0.480694
  H      2.437707    1.186651   -1.093704
  H      1.076435    0.069941    1.405317
  H      1.919357   -1.335372   -1.172048
  H      1.127033   -2.092656    0.208281
  H      2.764054   -1.461032    0.379429
  H     -0.029585    1.310403   -0.676587
  H     -1.076067    0.038440    1.411555
  H     -2.697105   -1.576734    0.396862
  H     -1.845901   -1.435981   -1.149733
  H     -1.032740   -2.137970    0.248004
  H     -3.245791    0.817620    0.484988
  H     -2.494751    1.061909   -1.095553
  H     -2.001594    2.051822    0.286316

 Total Charge           Charge          ....    0
 Multiplicity           Mult            ....    1
 Number of Electrons    NEL             ....   58
 Basis Dimension        Dim             ....  213

ORBITAL ENERGIES
----------------

  NO   OCC          E(Eh)            E(eV)
   0   2.0000     -14.127397      -384.4260
   1   2.0000     -10.050159      -273.4787
   2   2.0000     -10.050130      -273.4780
   3   2.0000     -10.008685      -272.3502
   4   2.0000     -10.008668      -272.3497
   5   2.0000     -10.002450      -272.1805
   6   2.0000     -10.002402      -272.1792
   7   2.0000      -0.865535       -23.5524
   8   2.0000      -0.746805       -20.3216
   9   2.0000      -0.687974       -18.7207
  10   2.0000      -0.647412       -17.6170
  11   2.0000      -0.639335       -17.3972
  12   2.0000      -0.541563       -14.7367
  13   2.0000      -0.531105       -14.4521
  14   2.0000      -0.440330       -11.9820
  15   2.0000      -0.431230       -11.7344
  16   2.0000      -0.420208       -11.4344
  17   2.0000      -0.390936       -10.6379
  18   2.0000      -0.365427        -9.9438
  19   2.0000      -0.354344        -9.6422
  20   2.0000      -0.352076        -9.5805
  21   2.0000      -0.343275        -9.3410
  22   2.0000      -0.340435        -9.2637
  23   2.0000      -0.316723        -8.6185
  24   2.0000      -0.311760        -8.4834
  25   2.0000      -0.294587        -8.0161
  26   2.0000      -0.292914        -7.9706
  27   2.0000      -0.276981        -7.5370
  28   2.0000      -0.185616        -5.0509
  29   0.0000       0.084739         2.3059
  30   0.0000       0.116129         3.1600
  31   0.0000       0.119460         3.2507
  32   0.0000       0.122559         3.3350
  33   0.0000       0.130783         3.5588

MULLIKEN ATOMIC CHARGES
-----------------------
   0 C :   -0.535725
   1 C :    0.022216
   2 C :   -0.533846
   3 N :   -0.385104
   4 C :    0.021644
   5 C :   -0.533790
   6 C :   -0.535454
   7 H :    0.159274
   8 H :    0.162471
   9 H :    0.164720
  10 H :    0.139386
  11 H :    0.160772
  12 H :    0.154984
  13 H :    0.154220
  14 H :    0.287994
  15 H :    0.139592
  16 H :    0.154030
  17 H :    0.160951
  18 H :    0.155352
  19 H :    0.162608
  20 H :    0.164548
  21 H :    0.159158
Sum of atomic charges:   -0.0000000

LOEWDIN ATOMIC CHARGES
----------------------
   0 C :   -0.396124
   1 C :   -0.016088
   2 C :   -0.404600
   3 N :   -0.850048
   4 C :   -0.016102
   5 C :   -0.404492
   6 C :   -0.396067
   7 H :    0.157659
   8 H :    0.161002
   9 H :    0.159777
  10 H :    0.165018
  11 H :    0.157735
  12 H :    0.155034
  13 H :    0.154649
  14 H :    0.261852
  15 H :    0.164722
  16 H :    0.154721
  17 H :    0.157902
  18 H :    0.155001
  19 H :    0.161016
  20 H :    0.159772
  21 H :    0.157659

  Mayer bond orders larger than 0.100000
B(  0-C ,  1-C ) :   0.9167 B(  0-C ,  7-H ) :   0.9701 B(  0-C ,  8-H ) :   0.9737
B(  0-C ,  9-H ) :   0.9775 B(  1-C ,  2-C ) :   0.9144 B(  1-C ,  3-N ) :   0.8459
B(  1-C , 10-H ) :   0.9539 B(  2-C , 11-H ) :   0.9788 B(  2-C , 12-H ) :   0.9678
B(  2-C , 13-H ) :   0.9782 B(  3-N ,  4-C ) :   0.8498 B(  3-N , 14-H ) :   0.8993
B(  4-C ,  5-C ) :   0.9123 B(  4-C ,  6-C ) :   0.9170 B(  4-C , 15-H ) :   0.9547
B(  5-C , 16-H ) :   0.9778 B(  5-C , 17-H ) :   0.9789 B(  5-C , 18-H ) :   0.9681
B(  6-C , 19-H ) :   0.9737 B(  6-C , 20-H ) :   0.9775 B(  6-C , 21-H ) :   0.9701

Dispersion correction           -0.005942876
FINAL SINGLE POINT ENERGY      -292.318611058415

DIPOLE MOMENT
-------------

Method             : SCF
Type of density    : Electron Density
Multiplicity       :   1
Irrep              :   0
Energy             :  -292.3271239275355811 Eh
Relativity type    :
Basis              : AO
                                X                 Y                 Z
Electronic contribution:     -0.020666928       0.835904669       0.077443221
Nuclear contribution   :      0.011883190      -0.381795221       0.388167964
                        -----------------------------------------
Total Dipole Moment    :     -0.008783738       0.454109448       0.465611185
                        -----------------------------------------
Magnitude (a.u.)       :      0.650450859
Magnitude (Debye)      :      1.653314693

Rotational constants in cm-1:             0.138559             0.052444             0.040867
Rotational constants in MHz :          4153.892445          1572.221962          1225.147346

                             ****ORCA TERMINATED NORMALLY****
TOTAL RUN TIME: 0 days 0 hours 0 minutes 34 seconds 829 msec
