                         Program Version 6.0.0  -   RELEASE  -
|  1> ! r2scan-3c def2/J RI DEFGRID2 scfconv6 printgap
|  2> %output
|  3>     printlevel normal
|  4> end
|  5> * xyz 0 1
|  6> C -4.537149315 -1.0399567613 0.3456390585
|  7> C -3.8429407351 -2.2209232141 0.1213411045
|  8> C -2.480143309 -2.1901025256 -0.1085898983
|  9> C -1.7853697345 -0.9821960919 -0.1133565954
| 10> C -2.4866837601 0.2067709921 0.1149153785
| 11> C -3.8615886776 0.1654788873 0.340376467
| 12> C -1.7896622165 1.4984852584 0.1191222658
| 13> O -2.3963554285 2.5551960834 0.2864994597
| 14> C -0.3298128876 1.4665719062 -0.0740782343
| 15> C 0.3368535812 2.6757704735 0.0172213585
| 16> C 1.7189905146 2.73050619 -0.1406422747
| 17> C 2.4276249107 1.5871165314 -0.3903818531
| 18> C 1.7927445129 0.3265261153 -0.4982047786
| 19> C 0.3735557813 0.2650667878 -0.3306488968
| 20> C -0.3326249504 -0.9965751236 -0.3775441002
| 21> O 0.2189316439 -2.086111453 -0.6182286514
| 22> N 2.4861700329 -0.7798695379 -0.8068057276
| 23> C 3.9085461049 -0.9744742412 -0.6913406446
| 24> C 4.3051471937 -1.3824490208 0.7412717032
| 25> O 4.0888217795 -0.3615032445 1.6878834106
| 26> H -5.6007675372 -1.0611187011 0.5235939109
| 27> H -4.3654877373 -3.1646580417 0.1245789597
| 28> H -1.923252268 -3.097619274 -0.2892582016
| 29> H -4.3753664099 1.1000521 0.5108333005
| 30> H -0.2406521169 3.5658713123 0.2140699889
| 31> H 2.227765772 3.6788502228 -0.0678854722
| 32> H 3.4939285325 1.651309683 -0.5212975006
| 33> H 1.9259054998 -1.6318493032 -0.8083862145
| 34> H 4.4458160058 -0.0731449754 -0.9869995356
| 35> H 4.187832888 -1.7834181208 -1.3677696708
| 36> H 5.351809551 -1.7068983066 0.7473997118
| 37> H 3.6771801178 -2.2167588779 1.0637214629
| 38> H 4.7465374339 0.3364408109 1.5638236617
| 39> *
| 40>
| 41>                          ****END OF INPUT****

CARTESIAN COORDINATES (ANGSTROEM)
---------------------------------
  C     -4.537149   -1.039957    0.345639
  C     -3.842941   -2.220923    0.121341
  C     -2.480143   -2.190103   -0.108590
  C     -1.785370   -0.982196   -0.113357
  C     -2.486684    0.206771    0.114915
  C     -3.861589    0.165479    0.340376
  C     -1.789662    1.498485    0.119122
  O     -2.396355    2.555196    0.286499
  C     -0.329813    1.466572   -0.074078
  C      0.336854    2.675770    0.017221
  C      1.718991    2.730506   -0.140642
  C      2.427625    1.587117   -0.390382
  C      1.792745    0.326526   -0.498205
  C      0.373556    0.265067   -0.330649
  C     -0.332625   -0.996575   -0.377544
  O      0.218932   -2.086111   -0.618229
  N      2.486170   -0.779870   -0.806806
  C      3.908546   -0.974474   -0.691341
  C      4.305147   -1.382449    0.741272
  O      4.088822   -0.361503    1.687883
  H     -5.600768   -1.061119    0.523594
  H     -4.365488   -3.164658    0.124579
  H     -1.923252   -3.097619   -0.289258
  H     -4.375366    1.100052    0.510833
  H     -0.240652    3.565871    0.214070
  H      2.227766    3.678850   -0.067885
  H      3.493929    1.651310   -0.521298
  H      1.925905   -1.631849   -0.808386
  H      4.445816   -0.073145   -0.987000
  H      4.187833   -1.783418   -1.367770
  H      5.351810   -1.706898    0.747400
  H      3.677180   -2.216759    1.063721
  H      4.746537    0.336441    1.563824

 Total Charge           Charge          ....    0
 Multiplicity           Mult            ....    1
 Number of Electrons    NEL             ....  140
 Basis Dimension        Dim             ....  465

ORBITAL ENERGIES
----------------

  NO   OCC          E(Eh)            E(eV)
   0   2.0000     -18.966525      -516.1054
   1   2.0000     -18.938884      -515.3532
   2   2.0000     -18.933765      -515.2139
   3   2.0000     -14.186659      -386.0386
   4   2.0000     -10.121138      -275.4102
   5   2.0000     -10.118042      -275.3259
   6   2.0000     -10.101382      -274.8726
   7   2.0000     -10.095068      -274.7008
   8   2.0000     -10.085668      -274.4450
   9   2.0000     -10.056079      -273.6398
  10   2.0000     -10.054803      -273.6051
  11   2.0000     -10.053682      -273.5746
  12   2.0000     -10.053290      -273.5639
  13   2.0000     -10.051992      -273.5286
  14   2.0000     -10.051073      -273.5036
  15   2.0000     -10.050092      -273.4769
  16   2.0000     -10.048850      -273.4431
  17   2.0000     -10.047313      -273.4013
  18   2.0000     -10.046591      -273.3816
  19   2.0000     -10.037634      -273.1379
  20   2.0000      -1.004907       -27.3449
  21   2.0000      -1.002717       -27.2853
  22   2.0000      -0.997952       -27.1556
  23   2.0000      -0.926434       -25.2096
  24   2.0000      -0.847651       -23.0658
  25   2.0000      -0.831346       -22.6221
  26   2.0000      -0.771495       -20.9934
  27   2.0000      -0.748780       -20.3753
  28   2.0000      -0.734115       -19.9763
  29   2.0000      -0.729138       -19.8408
  30   2.0000      -0.697480       -18.9794
  31   2.0000      -0.648217       -17.6389
  32   2.0000      -0.633380       -17.2351
  33   2.0000      -0.615339       -16.7442
  34   2.0000      -0.602596       -16.3975
  35   2.0000      -0.568915       -15.4810
  36   2.0000      -0.550075       -14.9683
  37   2.0000      -0.522036       -14.2053
  38   2.0000      -0.518025       -14.0962
  39   2.0000      -0.499320       -13.5872
  40   2.0000      -0.480117       -13.0646
  41   2.0000      -0.459156       -12.4943
  42   2.0000      -0.456240       -12.4149
  43   2.0000      -0.444901       -12.1064
  44   2.0000      -0.442140       -12.0313
  45   2.0000      -0.439131       -11.9494
  46   2.0000      -0.422171       -11.4879
  47   2.0000      -0.415065       -11.2945
  48   2.0000      -0.411726       -11.2036
  49   2.0000      -0.404250       -11.0002
  50   2.0000      -0.399913       -10.8822
  51   2.0000      -0.393707       -10.7133
  52   2.0000      -0.383209       -10.4277
  53   2.0000      -0.370828       -10.0907
  54   2.0000      -0.366237        -9.9658
  55   2.0000      -0.362651        -9.8682
  56   2.0000      -0.349620        -9.5137
  57   2.0000      -0.343577        -9.3492
  58   2.0000      -0.333962        -9.0876
  59   2.0000      -0.328988        -8.9522
  60   2.0000      -0.320368        -8.7176
  61   2.0000      -0.314893        -8.5687
  62   2.0000      -0.294802        -8.0220
  63   2.0000      -0.261628        -7.1193
  64   2.0000      -0.257139        -6.9971
  65   2.0000      -0.248126        -6.7518
  66   2.0000      -0.247216        -6.7271
  67   2.0000      -0.231081        -6.2880
  68   2.0000      -0.218726        -5.9518
  69   2.0000      -0.191992        -5.2244
  70   0.0000      -0.125554        -3.4165
  71   0.0000      -0.076191        -2.0733
  72   0.0000      -0.046729        -1.2716
  73   0.0000      -0.025829        -0.7028
  74   0.0000       0.024844         0.6760

MULLIKEN ATOMIC CHARGES
-----------------------
   0 C :   -0.132146
   1 C :   -0.128494
   2 C :   -0.226442
   3 C :    0.183984
   4 C :    0.137373
   5 C :   -0.217412
   6 C :    0.035517
   7 O :   -0.356291
   8 C :    0.201101
   9 C :   -0.251682
  10 C :   -0.142598
  11 C :   -0.363230
  12 C :    0.395604
  13 C :   -0.148548
  14 C :    0.037173
  15 O :   -0.446424
  16 N :   -0.048026
  17 C :   -0.354656
  18 C :   -0.111519
  19 O :   -0.394193
  20 H :    0.148671
  21 H :    0.148308
  22 H :    0.182224
  23 H :    0.181800
  24 H :    0.184849
  25 H :    0.145928
  26 H :    0.129940
  27 H :    0.318981
  28 H :    0.156866
  29 H :    0.158870
  30 H :    0.135725
  31 H :    0.141326
  32 H :    0.297423
Sum of atomic charges:   -0.0000000

LOEWDIN ATOMIC CHARGES
----------------------
   0 C :   -0.144308
   1 C :   -0.141164
   2 C :   -0.102466
   3 C :   -0.024852
   4 C :   -0.035287
   5 C :   -0.097595
   6 C :    0.269251
   7 O :   -0.481870
   8 C :   -0.023931
   9 C :   -0.122198
  10 C :   -0.130702
  11 C :   -0.133911
  12 C :    0.207099
  13 C :   -0.034830
  14 C :    0.270461
  15 O :   -0.542808
  16 N :   -0.667659
  17 C :   -0.031506
  18 C :    0.027587
  19 O :   -0.588857
  20 H :    0.170278
  21 H :    0.170144
  22 H :    0.192710
  23 H :    0.191600
  24 H :    0.193520
  25 H :    0.170897
  26 H :    0.169147
  27 H :    0.295690
  28 H :    0.177611
  29 H :    0.189026
  30 H :    0.159555
  31 H :    0.183594
  32 H :    0.265774

  Mayer bond orders larger than 0.100000
B(  0-C ,  1-C ) :   1.3223 B(  0-C ,  5-C ) :   1.3587 B(  0-C , 20-H ) :   0.9555
B(  1-C ,  2-C ) :   1.3510 B(  1-C , 21-H ) :   0.9556 B(  2-C ,  3-C ) :   1.3538
B(  2-C , 15-O ) :   0.1030 B(  2-C , 22-H ) :   0.9591 B(  3-C ,  4-C ) :   1.5177
B(  3-C , 14-C ) :   0.9239 B(  3-C , 15-O ) :  -0.1993 B(  4-C ,  5-C ) :   1.3489
B(  4-C ,  6-C ) :   0.8585 B(  4-C ,  7-O ) :  -0.2217 B(  5-C ,  7-O ) :   0.1088
B(  5-C , 23-H ) :   0.9631 B(  6-C ,  7-O ) :   2.0939 B(  6-C ,  8-C ) :   0.8665
B(  7-O ,  8-C ) :  -0.2136 B(  7-O ,  9-C ) :   0.1244 B(  8-C ,  9-C ) :   1.4118
B(  8-C , 13-C ) :   1.2629 B(  9-C , 10-C ) :   1.2507 B(  9-C , 24-H ) :   0.9649
B( 10-C , 11-C ) :   1.4111 B( 10-C , 25-H ) :   0.9628 B( 11-C , 12-C ) :   1.0862
B( 11-C , 26-H ) :   0.9490 B( 12-C , 13-C ) :   1.2641 B( 12-C , 14-C ) :  -0.1083
B( 12-C , 16-N ) :   1.2561 B( 13-C , 14-C ) :   0.9684 B( 13-C , 15-O ) :  -0.1063
B( 14-C , 15-O ) :   1.8686 B( 16-N , 17-C ) :   0.8177 B( 16-N , 27-H ) :   0.8257
B( 17-C , 18-C ) :   0.8987 B( 17-C , 28-H ) :   0.9846 B( 17-C , 29-H ) :   0.9634
B( 18-C , 19-O ) :   0.9675 B( 18-C , 30-H ) :   0.9798 B( 18-C , 31-H ) :   0.9640
B( 19-O , 32-H ) :   0.8947

Dispersion correction           -0.015849496
FINAL SINGLE POINT ENERGY      -897.782551253152

DIPOLE MOMENT
-------------

Method             : SCF
Type of density    : Electron Density
Multiplicity       :   1
Irrep              :   0
Energy             :  -897.7830346277826266 Eh
Relativity type    :
Basis              : AO
                                X                 Y                 Z
Electronic contribution:    -11.210506558       3.597481210      -0.946677406
Nuclear contribution   :     12.755360390      -4.133406405       0.678397189
                        -----------------------------------------
Total Dipole Moment    :      1.544853832      -0.535925196      -0.268280217
                        -----------------------------------------
Magnitude (a.u.)       :      1.657034536
Magnitude (Debye)      :      4.211847069

Rotational constants in cm-1:             0.021286             0.007928             0.006176
Rotational constants in MHz :           638.147567           237.671279           185.157401

                             ****ORCA TERMINATED NORMALLY****
TOTAL RUN TIME: 0 days 0 hours 2 minutes 8 seconds 571 msec
