                         Program Version 6.0.0  -   RELEASE  -
|  1> ! r2scan-3c def2/J RI DEFGRID2 scfconv6 printgap
|  2> %output
|  3>     printlevel normal
|  4> end
|  5> %cpcm
|  6>     smd true
|  7>     smdsolvent "water"
|  8> end
|  9> * xyz 0 1
| 10> C -4.537149315 -1.0399567613 0.3456390585
| 11> C -3.8429407351 -2.2209232141 0.1213411045
| 12> C -2.480143309 -2.1901025256 -0.1085898983
| 13> C -1.7853697345 -0.9821960919 -0.1133565954
| 14> C -2.4866837601 0.2067709921 0.1149153785
| 15> C -3.8615886776 0.1654788873 0.340376467
| 16> C -1.7896622165 1.4984852584 0.1191222658
| 17> O -2.3963554285 2.5551960834 0.2864994597
| 18> C -0.3298128876 1.4665719062 -0.0740782343
| 19> C 0.3368535812 2.6757704735 0.0172213585
| 20> C 1.7189905146 2.73050619 -0.1406422747
| 21> C 2.4276249107 1.5871165314 -0.3903818531
| 22> C 1.7927445129 0.3265261153 -0.4982047786
| 23> C 0.3735557813 0.2650667878 -0.3306488968
| 24> C -0.3326249504 -0.9965751236 -0.3775441002
| 25> O 0.2189316439 -2.086111453 -0.6182286514
| 26> N 2.4861700329 -0.7798695379 -0.8068057276
| 27> C 3.9085461049 -0.9744742412 -0.6913406446
| 28> C 4.3051471937 -1.3824490208 0.7412717032
| 29> O 4.0888217795 -0.3615032445 1.6878834106
| 30> H -5.6007675372 -1.0611187011 0.5235939109
| 31> H -4.3654877373 -3.1646580417 0.1245789597
| 32> H -1.923252268 -3.097619274 -0.2892582016
| 33> H -4.3753664099 1.1000521 0.5108333005
| 34> H -0.2406521169 3.5658713123 0.2140699889
| 35> H 2.227765772 3.6788502228 -0.0678854722
| 36> H 3.4939285325 1.651309683 -0.5212975006
| 37> H 1.9259054998 -1.6318493032 -0.8083862145
| 38> H 4.4458160058 -0.0731449754 -0.9869995356
| 39> H 4.187832888 -1.7834181208 -1.3677696708
| 40> H 5.351809551 -1.7068983066 0.7473997118
| 41> H 3.6771801178 -2.2167588779 1.0637214629
| 42> H 4.7465374339 0.3364408109 1.5638236617
| 43> *
| 44>
| 45>                          ****END OF INPUT****

CARTESIAN COORDINATES (ANGSTROEM)
---------------------------------
  C     -4.537149   -1.039957    0.345639
  C     -3.842941   -2.220923    0.121341
  C     -2.480143   -2.190103   -0.108590
  C     -1.785370   -0.982196   -0.113357
  C     -2.486684    0.206771    0.114915
  C     -3.861589    0.165479    0.340376
  C     -1.789662    1.498485    0.119122
  O     -2.396355    2.555196    0.286499
  C     -0.329813    1.466572   -0.074078
  C      0.336854    2.675770    0.017221
  C      1.718991    2.730506   -0.140642
  C      2.427625    1.587117   -0.390382
  C      1.792745    0.326526   -0.498205
  C      0.373556    0.265067   -0.330649
  C     -0.332625   -0.996575   -0.377544
  O      0.218932   -2.086111   -0.618229
  N      2.486170   -0.779870   -0.806806
  C      3.908546   -0.974474   -0.691341
  C      4.305147   -1.382449    0.741272
  O      4.088822   -0.361503    1.687883
  H     -5.600768   -1.061119    0.523594
  H     -4.365488   -3.164658    0.124579
  H     -1.923252   -3.097619   -0.289258
  H     -4.375366    1.100052    0.510833
  H     -0.240652    3.565871    0.214070
  H      2.227766    3.678850   -0.067885
  H      3.493929    1.651310   -0.521298
  H      1.925905   -1.631849   -0.808386
  H      4.445816   -0.073145   -0.987000
  H      4.187833   -1.783418   -1.367770
  H      5.351810   -1.706898    0.747400
  H      3.677180   -2.216759    1.063721
  H      4.746537    0.336441    1.563824

 Total Charge           Charge          ....    0
 Multiplicity           Mult            ....    1
 Number of Electrons    NEL             ....  140
 Basis Dimension        Dim             ....  465

ORBITAL ENERGIES
----------------

  NO   OCC          E(Eh)            E(eV)
   0   2.0000     -18.956276      -515.8265
   1   2.0000     -18.947988      -515.6010
   2   2.0000     -18.945677      -515.5381
   3   2.0000     -14.184093      -385.9688
   4   2.0000     -10.130861      -275.6747
   5   2.0000     -10.126755      -275.5630
   6   2.0000     -10.100857      -274.8583
   7   2.0000     -10.076184      -274.1869
   8   2.0000     -10.063699      -273.8472
   9   2.0000     -10.059748      -273.7396
  10   2.0000     -10.059084      -273.7216
  11   2.0000     -10.057789      -273.6864
  12   2.0000     -10.055449      -273.6227
  13   2.0000     -10.049612      -273.4638
  14   2.0000     -10.049437      -273.4591
  15   2.0000     -10.049184      -273.4522
  16   2.0000     -10.048000      -273.4200
  17   2.0000     -10.047707      -273.4120
  18   2.0000     -10.045801      -273.3601
  19   2.0000     -10.041815      -273.2517
  20   2.0000      -1.015015       -27.6200
  21   2.0000      -1.010796       -27.5052
  22   2.0000      -0.992897       -27.0181
  23   2.0000      -0.922038       -25.0899
  24   2.0000      -0.850834       -23.1524
  25   2.0000      -0.832468       -22.6526
  26   2.0000      -0.772726       -21.0270
  27   2.0000      -0.742034       -20.1918
  28   2.0000      -0.736539       -20.0423
  29   2.0000      -0.729829       -19.8596
  30   2.0000      -0.690065       -18.7776
  31   2.0000      -0.651154       -17.7188
  32   2.0000      -0.628522       -17.1030
  33   2.0000      -0.611528       -16.6405
  34   2.0000      -0.597902       -16.2697
  35   2.0000      -0.566428       -15.4133
  36   2.0000      -0.551208       -14.9991
  37   2.0000      -0.520024       -14.1506
  38   2.0000      -0.515515       -14.0279
  39   2.0000      -0.491839       -13.3836
  40   2.0000      -0.476957       -12.9786
  41   2.0000      -0.461843       -12.5674
  42   2.0000      -0.449198       -12.2233
  43   2.0000      -0.443216       -12.0605
  44   2.0000      -0.435284       -11.8447
  45   2.0000      -0.431146       -11.7321
  46   2.0000      -0.420861       -11.4522
  47   2.0000      -0.416018       -11.3204
  48   2.0000      -0.411282       -11.1916
  49   2.0000      -0.406006       -11.0480
  50   2.0000      -0.404614       -11.0101
  51   2.0000      -0.397921       -10.8280
  52   2.0000      -0.384907       -10.4738
  53   2.0000      -0.381209       -10.3732
  54   2.0000      -0.364561        -9.9202
  55   2.0000      -0.354309        -9.6412
  56   2.0000      -0.345145        -9.3919
  57   2.0000      -0.338586        -9.2134
  58   2.0000      -0.337755        -9.1908
  59   2.0000      -0.328334        -8.9344
  60   2.0000      -0.322000        -8.7621
  61   2.0000      -0.307584        -8.3698
  62   2.0000      -0.292171        -7.9504
  63   2.0000      -0.264556        -7.1989
  64   2.0000      -0.255478        -6.9519
  65   2.0000      -0.251595        -6.8462
  66   2.0000      -0.249471        -6.7884
  67   2.0000      -0.243686        -6.6310
  68   2.0000      -0.230146        -6.2626
  69   2.0000      -0.191935        -5.2228
  70   0.0000      -0.132835        -3.6146
  71   0.0000      -0.080152        -2.1811
  72   0.0000      -0.048329        -1.3151
  73   0.0000      -0.027983        -0.7615
  74   0.0000       0.024360         0.6629

MULLIKEN ATOMIC CHARGES
-----------------------
   0 C :   -0.169770
   1 C :   -0.159379
   2 C :   -0.241086
   3 C :    0.192137
   4 C :    0.136803
   5 C :   -0.229542
   6 C :    0.078630
   7 O :   -0.443240
   8 C :    0.186608
   9 C :   -0.252324
  10 C :   -0.184112
  11 C :   -0.334114
  12 C :    0.327537
  13 C :   -0.153888
  14 C :    0.055720
  15 O :   -0.509528
  16 N :   -0.076335
  17 C :   -0.329901
  18 C :   -0.124755
  19 O :   -0.478377
  20 H :    0.185195
  21 H :    0.185435
  22 H :    0.197260
  23 H :    0.195739
  24 H :    0.197144
  25 H :    0.183719
  26 H :    0.180194
  27 H :    0.351890
  28 H :    0.188956
  29 H :    0.180294
  30 H :    0.155683
  31 H :    0.152812
  32 H :    0.354595
Sum of atomic charges:   -0.0000000

LOEWDIN ATOMIC CHARGES
----------------------
   0 C :   -0.139825
   1 C :   -0.132736
   2 C :   -0.108993
   3 C :   -0.027315
   4 C :   -0.042377
   5 C :   -0.102588
   6 C :    0.275428
   7 O :   -0.551716
   8 C :   -0.033334
   9 C :   -0.125066
  10 C :   -0.128343
  11 C :   -0.119455
  12 C :    0.198905
  13 C :   -0.041943
  14 C :    0.269411
  15 O :   -0.587393
  16 N :   -0.658549
  17 C :   -0.020608
  18 C :    0.033095
  19 O :   -0.624296
  20 H :    0.184170
  21 H :    0.184409
  22 H :    0.196597
  23 H :    0.194840
  24 H :    0.195715
  25 H :    0.185891
  26 H :    0.190973
  27 H :    0.298305
  28 H :    0.193053
  29 H :    0.200300
  30 H :    0.172408
  31 H :    0.185003
  32 H :    0.286032

  Mayer bond orders larger than 0.100000
B(  0-C ,  1-C ) :   1.3095 B(  0-C ,  5-C ) :   1.3553 B(  0-C , 20-H ) :   0.9603
B(  1-C ,  2-C ) :   1.3408 B(  1-C , 21-H ) :   0.9603 B(  2-C ,  3-C ) :   1.2984
B(  2-C , 15-O ) :   0.1004 B(  2-C , 22-H ) :   0.9719 B(  3-C ,  4-C ) :   1.5042
B(  3-C , 14-C ) :   0.9194 B(  3-C , 15-O ) :  -0.1982 B(  4-C ,  5-C ) :   1.2867
B(  4-C ,  6-C ) :   0.8687 B(  4-C ,  7-O ) :  -0.2214 B(  5-C ,  7-O ) :   0.1044
B(  5-C , 23-H ) :   0.9740 B(  6-C ,  7-O ) :   2.0533 B(  6-C ,  8-C ) :   0.8786
B(  7-O ,  8-C ) :  -0.2128 B(  7-O ,  9-C ) :   0.1229 B(  8-C ,  9-C ) :   1.3403
B(  8-C , 13-C ) :   1.2494 B(  9-C , 10-C ) :   1.2238 B(  9-C , 24-H ) :   0.9784
B( 10-C , 11-C ) :   1.3958 B( 10-C , 25-H ) :   0.9765 B( 11-C , 12-C ) :   1.1015
B( 11-C , 26-H ) :   0.9584 B( 12-C , 13-C ) :   1.2170 B( 12-C , 16-N ) :   1.2694
B( 13-C , 14-C ) :   0.9851 B( 13-C , 15-O ) :  -0.1124 B( 14-C , 15-O ) :   1.8457
B( 16-N , 17-C ) :   0.8267 B( 16-N , 27-H ) :   0.8222 B( 17-C , 18-C ) :   0.8937
B( 17-C , 28-H ) :   0.9695 B( 17-C , 29-H ) :   0.9536 B( 18-C , 19-O ) :   0.9595
B( 18-C , 30-H ) :   0.9642 B( 18-C , 31-H ) :   0.9699 B( 19-O , 32-H ) :   0.8659

Dispersion correction           -0.015849496
FINAL SINGLE POINT ENERGY      -897.805777068643

DIPOLE MOMENT
-------------

Method             : SCF
Type of density    : Electron Density
Multiplicity       :   1
Irrep              :   0
Energy             :  -897.8062604432728904 Eh
Relativity type    :
Basis              : AO
                                X                 Y                 Z
Electronic contribution:    -10.304080396       3.391997995      -1.187618771
Nuclear contribution   :     12.755360390      -4.133406405       0.678397189
                        -----------------------------------------
Total Dipole Moment    :      2.451279994      -0.741408410      -0.509221582
                        -----------------------------------------
Magnitude (a.u.)       :      2.611085341
Magnitude (Debye)      :      6.636851498

Rotational constants in cm-1:             0.021286             0.007928             0.006176
Rotational constants in MHz :           638.147567           237.671279           185.157401

                             ****ORCA TERMINATED NORMALLY****
TOTAL RUN TIME: 0 days 0 hours 2 minutes 39 seconds 809 msec
