                         Program Version 6.0.0  -   RELEASE  -
|  1> ! pbe def2-sv(p) def2/J RI DEFGRID1 loosescf d4 GCP(DFT/SV(P)) printgap
|  2> %output
|  3>     printlevel normal
|  4> end
|  5> * xyz 0 1
|  6> C -4.461765187 -1.1624457397 -0.4856444405
|  7> C -3.6994767896 -2.3083511503 -0.3048499433
|  8> C -2.3434628856 -2.2060577484 -0.0558430606
|  9> C -1.7235263098 -0.9600823038 0.0126375678
| 10> C -2.4935926796 0.1936025777 -0.1708151157
| 11> C -3.8608738914 0.0799645629 -0.4170870442
| 12> C -1.8775090281 1.5238882807 -0.1036017392
| 13> O -2.545425748 2.5486318006 -0.2304242045
| 14> C -0.4209974813 1.572126183 0.1135231012
| 15> C 0.1657814136 2.8255377235 0.1183218995
| 16> C 1.5364686577 2.9595783886 0.3226407827
| 17> C 2.3157482098 1.850716449 0.5102479469
| 18> C 1.7660554273 0.5443447393 0.4974254813
| 19> C 0.3543147554 0.4037323424 0.3049741255
| 20> C -0.2740817079 -0.8992676388 0.2898894279
| 21> O 0.3388843506 -1.9623556069 0.496463361
| 22> N 2.5286153334 -0.5356380826 0.6974684869
| 23> C 3.9644632886 -0.640698912 0.6905916964
| 24> C 4.4121557008 -1.7204982135 -0.3071693479
| 25> O 4.1090047399 -1.3946223887 -1.6438213298
| 26> H -5.5201054299 -1.2395371863 -0.6788917079
| 27> H -4.1635240663 -3.2807556544 -0.3574078253
| 28> H -1.7341438203 -3.0856986029 0.0901184079
| 29> H -4.4287435865 0.9886946697 -0.5519370986
| 30> H -0.4654898199 3.6877232264 -0.0317383047
| 31> H 1.9803325373 3.9425411215 0.3397130153
| 32> H 3.3694141347 1.9782368628 0.6929356476
| 33> H 2.023912169 -1.421552441 0.6810714358
| 34> H 4.3148761432 -0.9276756467 1.6873422245
| 35> H 4.4178160634 0.311326146 0.4164010479
| 36> H 3.8767911065 -2.6516834148 -0.1072330959
| 37> H 5.4870898992 -1.8995647706 -0.1846656684
| 38> H 4.6336160977 -0.6287786162 -1.9159456608
| 39> *
| 40>
| 41>                          ****END OF INPUT****

CARTESIAN COORDINATES (ANGSTROEM)
---------------------------------
  C     -4.461765   -1.162446   -0.485644
  C     -3.699477   -2.308351   -0.304850
  C     -2.343463   -2.206058   -0.055843
  C     -1.723526   -0.960082    0.012638
  C     -2.493593    0.193603   -0.170815
  C     -3.860874    0.079965   -0.417087
  C     -1.877509    1.523888   -0.103602
  O     -2.545426    2.548632   -0.230424
  C     -0.420997    1.572126    0.113523
  C      0.165781    2.825538    0.118322
  C      1.536469    2.959578    0.322641
  C      2.315748    1.850716    0.510248
  C      1.766055    0.544345    0.497425
  C      0.354315    0.403732    0.304974
  C     -0.274082   -0.899268    0.289889
  O      0.338884   -1.962356    0.496463
  N      2.528615   -0.535638    0.697468
  C      3.964463   -0.640699    0.690592
  C      4.412156   -1.720498   -0.307169
  O      4.109005   -1.394622   -1.643821
  H     -5.520105   -1.239537   -0.678892
  H     -4.163524   -3.280756   -0.357408
  H     -1.734144   -3.085699    0.090118
  H     -4.428744    0.988695   -0.551937
  H     -0.465490    3.687723   -0.031738
  H      1.980333    3.942541    0.339713
  H      3.369414    1.978237    0.692936
  H      2.023912   -1.421552    0.681071
  H      4.314876   -0.927676    1.687342
  H      4.417816    0.311326    0.416401
  H      3.876791   -2.651683   -0.107233
  H      5.487090   -1.899565   -0.184666
  H      4.633616   -0.628779   -1.915946

 Total Charge           Charge          ....    0
 Multiplicity           Mult            ....    1
 Number of Electrons    NEL             ....  140
 Basis Dimension        Dim             ....  306

ORBITAL ENERGIES
----------------

  NO   OCC          E(Eh)            E(eV)
   0   2.0000     -18.757016      -510.4044
   1   2.0000     -18.745452      -510.0897
   2   2.0000     -18.739537      -509.9287
   3   2.0000     -14.016611      -381.4114
   4   2.0000      -9.974231      -271.4126
   5   2.0000      -9.971151      -271.3288
   6   2.0000      -9.958002      -270.9710
   7   2.0000      -9.949220      -270.7321
   8   2.0000      -9.940500      -270.4948
   9   2.0000      -9.910430      -269.6765
  10   2.0000      -9.909156      -269.6418
  11   2.0000      -9.908737      -269.6305
  12   2.0000      -9.908134      -269.6140
  13   2.0000      -9.907478      -269.5962
  14   2.0000      -9.905939      -269.5543
  15   2.0000      -9.905328      -269.5377
  16   2.0000      -9.905214      -269.5346
  17   2.0000      -9.902078      -269.4493
  18   2.0000      -9.901054      -269.4214
  19   2.0000      -9.892205      -269.1806
  20   2.0000      -0.937967       -25.5234
  21   2.0000      -0.934740       -25.4356
  22   2.0000      -0.932002       -25.3611
  23   2.0000      -0.870919       -23.6989
  24   2.0000      -0.794063       -21.6075
  25   2.0000      -0.779660       -21.2156
  26   2.0000      -0.722660       -19.6646
  27   2.0000      -0.705625       -19.2010
  28   2.0000      -0.685012       -18.6401
  29   2.0000      -0.681334       -18.5400
  30   2.0000      -0.653202       -17.7745
  31   2.0000      -0.606539       -16.5048
  32   2.0000      -0.596885       -16.2421
  33   2.0000      -0.582388       -15.8476
  34   2.0000      -0.566860       -15.4250
  35   2.0000      -0.538847       -14.6628
  36   2.0000      -0.521274       -14.1846
  37   2.0000      -0.497648       -13.5417
  38   2.0000      -0.493370       -13.4253
  39   2.0000      -0.473566       -12.8864
  40   2.0000      -0.454070       -12.3559
  41   2.0000      -0.439770       -11.9667
  42   2.0000      -0.432651       -11.7730
  43   2.0000      -0.428157       -11.6508
  44   2.0000      -0.421881       -11.4800
  45   2.0000      -0.418357       -11.3841
  46   2.0000      -0.403752       -10.9867
  47   2.0000      -0.396393       -10.7864
  48   2.0000      -0.392348       -10.6763
  49   2.0000      -0.385303       -10.4846
  50   2.0000      -0.380315       -10.3489
  51   2.0000      -0.371246       -10.1021
  52   2.0000      -0.364664        -9.9230
  53   2.0000      -0.358677        -9.7601
  54   2.0000      -0.353097        -9.6083
  55   2.0000      -0.346761        -9.4358
  56   2.0000      -0.335807        -9.1378
  57   2.0000      -0.328514        -8.9393
  58   2.0000      -0.319879        -8.7043
  59   2.0000      -0.314249        -8.5511
  60   2.0000      -0.305512        -8.3134
  61   2.0000      -0.294288        -8.0080
  62   2.0000      -0.277832        -7.5602
  63   2.0000      -0.246488        -6.7073
  64   2.0000      -0.239489        -6.5168
  65   2.0000      -0.237902        -6.4737
  66   2.0000      -0.232615        -6.3298
  67   2.0000      -0.214777        -5.8444
  68   2.0000      -0.202486        -5.5099
  69   2.0000      -0.184861        -5.0303
  70   0.0000      -0.122999        -3.3470
  71   0.0000      -0.075543        -2.0556
  72   0.0000      -0.048958        -1.3322
  73   0.0000      -0.028250        -0.7687
  74   0.0000       0.011395         0.3101

MULLIKEN ATOMIC CHARGES
-----------------------
   0 C :   -0.021531
   1 C :   -0.016462
   2 C :   -0.133064
   3 C :    0.051865
   4 C :    0.038176
   5 C :   -0.126376
   6 C :    0.085279
   7 O :   -0.152039
   8 C :    0.019643
   9 C :   -0.141388
  10 C :   -0.009955
  11 C :   -0.174552
  12 C :    0.096712
  13 C :    0.047192
  14 C :    0.076484
  15 O :   -0.220636
  16 N :   -0.230074
  17 C :   -0.062179
  18 C :   -0.021276
  19 O :   -0.426891
  20 H :    0.061603
  21 H :    0.061403
  22 H :    0.058669
  23 H :    0.057477
  24 H :    0.054598
  25 H :    0.057249
  26 H :    0.037349
  27 H :    0.248254
  28 H :    0.098279
  29 H :    0.096269
  30 H :    0.108535
  31 H :    0.084563
  32 H :    0.296824
Sum of atomic charges:   -0.0000000

LOEWDIN ATOMIC CHARGES
----------------------
   0 C :   -0.108593
   1 C :   -0.105344
   2 C :   -0.088540
   3 C :   -0.043621
   4 C :   -0.053577
   5 C :   -0.083499
   6 C :    0.058711
   7 O :   -0.132539
   8 C :   -0.044118
   9 C :   -0.113249
  10 C :   -0.098068
  11 C :   -0.149518
  12 C :    0.036565
  13 C :   -0.090255
  14 C :    0.057930
  15 O :   -0.177872
  16 N :   -0.123577
  17 C :   -0.175644
  18 C :   -0.130212
  19 O :   -0.334751
  20 H :    0.128285
  21 H :    0.128221
  22 H :    0.134981
  23 H :    0.135479
  24 H :    0.134522
  25 H :    0.128691
  26 H :    0.124883
  27 H :    0.241811
  28 H :    0.121329
  29 H :    0.115839
  30 H :    0.120745
  31 H :    0.100598
  32 H :    0.284388

  Mayer bond orders larger than 0.100000
B(  0-C ,  1-C ) :   1.3267 B(  0-C ,  5-C ) :   1.3370 B(  0-C , 20-H ) :   0.9669
B(  1-C ,  2-C ) :   1.3361 B(  1-C , 21-H ) :   0.9665 B(  2-C ,  3-C ) :   1.3819
B(  2-C , 22-H ) :   0.9540 B(  3-C ,  4-C ) :   1.3355 B(  3-C , 14-C ) :   0.9811
B(  4-C ,  5-C ) :   1.3779 B(  4-C ,  6-C ) :   0.9570 B(  5-C , 23-H ) :   0.9569
B(  6-C ,  7-O ) :   2.1541 B(  6-C ,  8-C ) :   0.9500 B(  8-C ,  9-C ) :   1.4296
B(  8-C , 13-C ) :   1.3026 B(  9-C , 10-C ) :   1.2318 B(  9-C , 24-H ) :   0.9561
B( 10-C , 11-C ) :   1.4058 B( 10-C , 25-H ) :   0.9644 B( 11-C , 12-C ) :   1.2269
B( 11-C , 26-H ) :   0.9544 B( 12-C , 13-C ) :   1.2095 B( 12-C , 16-N ) :   1.3957
B( 13-C , 14-C ) :   1.0285 B( 14-C , 15-O ) :   1.9532 B( 15-O , 27-H ) :   0.1494
B( 16-N , 17-C ) :   1.0122 B( 16-N , 27-H ) :   0.7582 B( 17-C , 18-C ) :   1.0738
B( 17-C , 28-H ) :   0.9085 B( 17-C , 29-H ) :   0.9070 B( 18-C , 19-O ) :   1.0877
B( 18-C , 30-H ) :   0.9235 B( 18-C , 31-H ) :   0.9232 B( 19-O , 32-H ) :   0.8530

Dispersion correction           -0.046381418
FINAL SINGLE POINT ENERGY      -896.119599321737

DIPOLE MOMENT
-------------

Method             : SCF
Type of density    : Electron Density
Multiplicity       :   1
Irrep              :   0
Energy             :  -896.2165514311041079 Eh
Relativity type    :
Basis              : AO
                                X                 Y                 Z
Electronic contribution:    -11.463848458       3.748632500       0.162451838
Nuclear contribution   :     12.981177591      -3.980305595       0.058260303
                        -----------------------------------------
Total Dipole Moment    :      1.517329133      -0.231673095       0.220712141
                        -----------------------------------------
Magnitude (a.u.)       :      1.550701122
Magnitude (Debye)      :      3.941569010

Rotational constants in cm-1:             0.019557             0.008016             0.006014
Rotational constants in MHz :           586.313759           240.314480           180.280901

                             ****ORCA TERMINATED NORMALLY****
TOTAL RUN TIME: 0 days 0 hours 0 minutes 31 seconds 255 msec
