                         Program Version 6.0.0  -   RELEASE  -
|  1> ! pbe def2-sv(p) def2/J RI DEFGRID1 loosescf d4 GCP(DFT/SV(P)) printgap
|  2> %output
|  3>     printlevel normal
|  4> end
|  5> * xyz 0 1
|  6> C -3.5342841486 -0.307803527 -1.8181431588
|  7> C -3.1380453301 -0.5368545798 -0.3597298169
|  8> H -3.5698982326 -1.4686959505 0.0132763921
|  9> C -1.6317650287 -0.5925439013 -0.1952784718
| 10> C -1.0172126012 -1.7867574245 0.2221304482
| 11> C 0.3408594008 -1.8655103882 0.3562290867
| 12> C 1.1616645143 -0.7514417031 0.0864131892
| 13> C 2.5648062137 -0.8122529968 0.2191689325
| 14> C 3.3351906362 0.2915795428 -0.0477334934
| 15> C 2.7193898716 1.4984381651 -0.4568898741
| 16> C 1.3668261592 1.5769593693 -0.5907682296
| 17> C 0.5460405517 0.4578716635 -0.3256271527
| 18> C -0.8539682586 0.5074378702 -0.4569868144
| 19> O 4.6942378479 0.3487293497 0.0451230829
| 20> C 5.3925790797 -0.8145127334 0.4456607227
| 21> C -3.6247322428 0.5859754438 0.5289543715
| 22> O -3.724527616 1.7472402325 0.1979082369
| 23> O -3.8981593774 0.165908072 1.7545342685
| 24> H -3.0664525072 -1.0580489952 -2.4490041048
| 25> H -4.6137801175 -0.3704542915 -1.9297677402
| 26> H -3.2123246379 0.6784282262 -2.1413896369
| 27> H -1.6324859199 -2.6483796722 0.4337191342
| 28> H 0.8032395293 -2.788509093 0.6733594937
| 29> H 3.0035422743 -1.7457902008 0.5339529617
| 30> H 3.3598859917 2.3429875257 -0.6563635755
| 31> H 0.901586594 2.4998253745 -0.9033700683
| 32> H -1.3133806928 1.4376677967 -0.7604740447
| 33> H 5.0956072189 -1.124907332 1.4507943993
| 34> H 6.4432560067 -0.5337798438 0.4437042078
| 35> H 5.2284307395 -1.6339398791 -0.2589001096
| 36> H -4.1676344037 0.8895767088 2.3533904244
| 37> *
| 38>
| 39>                          ****END OF INPUT****

CARTESIAN COORDINATES (ANGSTROEM)
---------------------------------
  C     -3.534284   -0.307804   -1.818143
  C     -3.138045   -0.536855   -0.359730
  H     -3.569898   -1.468696    0.013276
  C     -1.631765   -0.592544   -0.195278
  C     -1.017213   -1.786757    0.222130
  C      0.340859   -1.865510    0.356229
  C      1.161665   -0.751442    0.086413
  C      2.564806   -0.812253    0.219169
  C      3.335191    0.291580   -0.047733
  C      2.719390    1.498438   -0.456890
  C      1.366826    1.576959   -0.590768
  C      0.546041    0.457872   -0.325627
  C     -0.853968    0.507438   -0.456987
  O      4.694238    0.348729    0.045123
  C      5.392579   -0.814513    0.445661
  C     -3.624732    0.585975    0.528954
  O     -3.724528    1.747240    0.197908
  O     -3.898159    0.165908    1.754534
  H     -3.066453   -1.058049   -2.449004
  H     -4.613780   -0.370454   -1.929768
  H     -3.212325    0.678428   -2.141390
  H     -1.632486   -2.648380    0.433719
  H      0.803240   -2.788509    0.673359
  H      3.003542   -1.745790    0.533953
  H      3.359886    2.342988   -0.656364
  H      0.901587    2.499825   -0.903370
  H     -1.313381    1.437668   -0.760474
  H      5.095607   -1.124907    1.450794
  H      6.443256   -0.533780    0.443704
  H      5.228431   -1.633940   -0.258900
  H     -4.167634    0.889577    2.353390

 Total Charge           Charge          ....    0
 Multiplicity           Mult            ....    1
 Number of Electrons    NEL             ....  122
 Basis Dimension        Dim             ....  266

ORBITAL ENERGIES
----------------

  NO   OCC          E(Eh)            E(eV)
   0   2.0000     -18.799542      -511.5615
   1   2.0000     -18.792405      -511.3673
   2   2.0000     -18.737023      -509.8603
   3   2.0000     -10.012104      -272.4432
   4   2.0000      -9.953329      -270.8439
   5   2.0000      -9.942930      -270.5609
   6   2.0000      -9.911563      -269.7073
   7   2.0000      -9.903414      -269.4856
   8   2.0000      -9.901765      -269.4407
   9   2.0000      -9.897095      -269.3136
  10   2.0000      -9.893912      -269.2270
  11   2.0000      -9.892346      -269.1844
  12   2.0000      -9.891581      -269.1636
  13   2.0000      -9.891197      -269.1531
  14   2.0000      -9.889206      -269.0990
  15   2.0000      -9.888018      -269.0667
  16   2.0000      -9.880133      -268.8521
  17   2.0000      -1.008406       -27.4401
  18   2.0000      -0.971949       -26.4481
  19   2.0000      -0.911370       -24.7996
  20   2.0000      -0.795226       -21.6392
  21   2.0000      -0.756743       -20.5920
  22   2.0000      -0.718919       -19.5628
  23   2.0000      -0.693567       -18.8729
  24   2.0000      -0.672516       -18.3001
  25   2.0000      -0.646770       -17.5995
  26   2.0000      -0.626446       -17.0465
  27   2.0000      -0.611578       -16.6419
  28   2.0000      -0.562331       -15.3018
  29   2.0000      -0.552821       -15.0430
  30   2.0000      -0.539093       -14.6695
  31   2.0000      -0.517623       -14.0852
  32   2.0000      -0.483348       -13.1526
  33   2.0000      -0.465558       -12.6685
  34   2.0000      -0.460122       -12.5206
  35   2.0000      -0.439922       -11.9709
  36   2.0000      -0.423892       -11.5347
  37   2.0000      -0.418862       -11.3978
  38   2.0000      -0.411800       -11.2056
  39   2.0000      -0.406043       -11.0490
  40   2.0000      -0.397862       -10.8264
  41   2.0000      -0.388854       -10.5813
  42   2.0000      -0.381680       -10.3860
  43   2.0000      -0.374740       -10.1972
  44   2.0000      -0.363413        -9.8890
  45   2.0000      -0.356796        -9.7089
  46   2.0000      -0.351844        -9.5742
  47   2.0000      -0.344460        -9.3732
  48   2.0000      -0.331204        -9.0125
  49   2.0000      -0.328851        -8.9485
  50   2.0000      -0.314101        -8.5471
  51   2.0000      -0.312259        -8.4970
  52   2.0000      -0.301696        -8.2096
  53   2.0000      -0.292521        -7.9599
  54   2.0000      -0.281911        -7.6712
  55   2.0000      -0.272977        -7.4281
  56   2.0000      -0.268389        -7.3032
  57   2.0000      -0.250606        -6.8193
  58   2.0000      -0.221697        -6.0327
  59   2.0000      -0.208997        -5.6871
  60   2.0000      -0.185035        -5.0351
  61   0.0000      -0.064532        -1.7560
  62   0.0000      -0.039669        -1.0795
  63   0.0000      -0.011952        -0.3252
  64   0.0000      -0.003448        -0.0938
  65   0.0000       0.027427         0.7463

MULLIKEN ATOMIC CHARGES
-----------------------
   0 C :   -0.217744
   1 C :   -0.113821
   2 H :    0.072735
   3 C :    0.098099
   4 C :   -0.097663
   5 C :   -0.132427
   6 C :    0.172858
   7 C :   -0.302138
   8 C :    0.295076
   9 C :   -0.093620
  10 C :   -0.128404
  11 C :    0.182964
  12 C :   -0.220216
  13 O :   -0.267917
  14 C :   -0.113837
  15 C :    0.108859
  16 O :   -0.191984
  17 O :   -0.283088
  18 H :    0.107649
  19 H :    0.103791
  20 H :    0.121476
  21 H :    0.036617
  22 H :    0.032103
  23 H :    0.023587
  24 H :    0.046764
  25 H :    0.044770
  26 H :    0.050496
  27 H :    0.111916
  28 H :    0.126809
  29 H :    0.111939
  30 H :    0.314352
Sum of atomic charges:   -0.0000000

LOEWDIN ATOMIC CHARGES
----------------------
   0 C :   -0.317228
   1 C :   -0.154156
   2 H :    0.131240
   3 C :   -0.037380
   4 C :   -0.120237
   5 C :   -0.116207
   6 C :   -0.017803
   7 C :   -0.174738
   8 C :    0.029401
   9 C :   -0.132855
  10 C :   -0.103393
  11 C :   -0.033558
  12 C :   -0.105556
  13 O :   -0.088881
  14 C :   -0.201927
  15 C :    0.037766
  16 O :   -0.171441
  17 O :   -0.200096
  18 H :    0.124821
  19 H :    0.122295
  20 H :    0.128316
  21 H :    0.122708
  22 H :    0.122007
  23 H :    0.125449
  24 H :    0.131574
  25 H :    0.127673
  26 H :    0.129328
  27 H :    0.110618
  28 H :    0.123121
  29 H :    0.110631
  30 H :    0.298508

  Mayer bond orders larger than 0.100000
B(  0-C ,  1-C ) :   1.1045 B(  0-C , 18-H ) :   0.9489 B(  0-C , 19-H ) :   0.9492
B(  0-C , 20-H ) :   0.9365 B(  1-C ,  2-H ) :   0.8679 B(  1-C ,  3-C ) :   1.0042
B(  1-C , 15-C ) :   0.9319 B(  3-C ,  4-C ) :   1.2891 B(  3-C , 12-C ) :   1.4196
B(  4-C ,  5-C ) :   1.4369 B(  4-C , 21-H ) :   0.9595 B(  5-C ,  6-C ) :   1.2386
B(  5-C , 22-H ) :   0.9637 B(  6-C ,  7-C ) :   1.2001 B(  6-C , 11-C ) :   1.2512
B(  7-C ,  8-C ) :   1.3363 B(  7-C , 23-H ) :   0.9641 B(  8-C ,  9-C ) :   1.2424
B(  8-C , 13-O ) :   1.1403 B(  9-C , 10-C ) :   1.4592 B(  9-C , 24-H ) :   0.9618
B( 10-C , 11-C ) :   1.2034 B( 10-C , 25-H ) :   0.9680 B( 11-C , 12-C ) :   1.2231
B( 12-C , 26-H ) :   0.9528 B( 13-O , 14-C ) :   0.9881 B( 14-C , 27-H ) :   0.9415
B( 14-C , 28-H ) :   0.9585 B( 14-C , 29-H ) :   0.9414 B( 15-C , 16-O ) :   2.0712
B( 15-C , 17-O ) :   1.3060 B( 17-O , 30-H ) :   0.8201

Dispersion correction           -0.038941723
FINAL SINGLE POINT ENERGY      -765.995502129335

DIPOLE MOMENT
-------------

Method             : SCF
Type of density    : Electron Density
Multiplicity       :   1
Irrep              :   0
Energy             :  -766.0897160135455124 Eh
Relativity type    :
Basis              : AO
                                X                 Y                 Z
Electronic contribution:     -2.584292353       4.338913265       3.453748998
Nuclear contribution   :      3.014676788      -5.148969956      -2.969811180
                        -----------------------------------------
Total Dipole Moment    :      0.430384436      -0.810056691       0.483937817
                        -----------------------------------------
Magnitude (a.u.)       :      1.037120252
Magnitude (Debye)      :      2.636150182

Rotational constants in cm-1:             0.041652             0.007273             0.006849
Rotational constants in MHz :          1248.684575           218.025058           205.330140

                             ****ORCA TERMINATED NORMALLY****
TOTAL RUN TIME: 0 days 0 hours 0 minutes 28 seconds 56 msec
