                         Program Version 6.0.0  -   RELEASE  -
|  1> ! pbe def2-sv(p) def2/J RI DEFGRID1 loosescf d4 GCP(DFT/SV(P)) printgap
|  2> %output
|  3>     printlevel normal
|  4> end
|  5> * xyz 0 1
|  6> C -2.5344942489 -1.2953028375 -0.2315808051
|  7> C -2.5517650805 0.190485995 0.106433856
|  8> C -1.2623927861 0.6238710939 0.8118983387
|  9> C -0.0808425532 0.515974401 -0.1179450967
| 10> O -0.0047215204 1.0522886637 -1.2048096104
| 11> O 0.8759669637 -0.2414955017 0.398400585
| 12> C 2.0998648776 -0.4297036668 -0.332947111
| 13> C 3.2696395732 -0.3358659564 0.6308106846
| 14> H -2.399837457 -1.8905275133 0.6683665854
| 15> H -3.4685473365 -1.5871605516 -0.7040420331
| 16> H -1.7196277707 -1.5191738211 -0.9177114163
| 17> H -3.3985250786 0.4086892898 0.757574518
| 18> H -2.6615923662 0.7745807655 -0.8092593323
| 19> H -1.0715284109 0.0096804211 1.690953127
| 20> H -1.3476068642 1.6700443923 1.1102997136
| 21> H 2.0505757497 -1.4193226125 -0.796193562
| 22> H 2.1553413186 0.3309980851 -1.1180696248
| 23> H 3.1623326627 -1.07869729 1.4157240378
| 24> H 4.1937483508 -0.5146860707 0.0909996572
| 25> H 3.3068726796 0.6508001104 1.0843108004
| 26> *
| 27>
| 28>                          ****END OF INPUT****

CARTESIAN COORDINATES (ANGSTROEM)
---------------------------------
  C     -2.534494   -1.295303   -0.231581
  C     -2.551765    0.190486    0.106434
  C     -1.262393    0.623871    0.811898
  C     -0.080843    0.515974   -0.117945
  O     -0.004722    1.052289   -1.204810
  O      0.875967   -0.241496    0.398401
  C      2.099865   -0.429704   -0.332947
  C      3.269640   -0.335866    0.630811
  H     -2.399837   -1.890528    0.668367
  H     -3.468547   -1.587161   -0.704042
  H     -1.719628   -1.519174   -0.917711
  H     -3.398525    0.408689    0.757575
  H     -2.661592    0.774581   -0.809259
  H     -1.071528    0.009680    1.690953
  H     -1.347607    1.670044    1.110300
  H      2.050576   -1.419323   -0.796194
  H      2.155341    0.330998   -1.118070
  H      3.162333   -1.078697    1.415724
  H      4.193748   -0.514686    0.091000
  H      3.306873    0.650800    1.084311

 Total Charge           Charge          ....    0
 Multiplicity           Mult            ....    1
 Number of Electrons    NEL             ....   64
 Basis Dimension        Dim             ....  136

ORBITAL ENERGIES
----------------

  NO   OCC          E(Eh)            E(eV)
   0   2.0000     -18.797848      -511.5155
   1   2.0000     -18.729640      -509.6594
   2   2.0000     -10.004251      -272.2295
   3   2.0000      -9.945364      -270.6271
   4   2.0000      -9.895441      -269.2686
   5   2.0000      -9.890627      -269.1376
   6   2.0000      -9.889586      -269.1093
   7   2.0000      -9.876785      -268.7610
   8   2.0000      -1.003489       -27.3063
   9   2.0000      -0.907337       -24.6899
  10   2.0000      -0.727505       -19.7964
  11   2.0000      -0.699286       -19.0285
  12   2.0000      -0.636468       -17.3192
  13   2.0000      -0.586145       -15.9498
  14   2.0000      -0.530813       -14.4441
  15   2.0000      -0.500691       -13.6245
  16   2.0000      -0.453665       -12.3449
  17   2.0000      -0.437348       -11.9008
  18   2.0000      -0.413868       -11.2619
  19   2.0000      -0.403651       -10.9839
  20   2.0000      -0.389811       -10.6073
  21   2.0000      -0.366894        -9.9837
  22   2.0000      -0.362076        -9.8526
  23   2.0000      -0.351077        -9.5533
  24   2.0000      -0.345332        -9.3970
  25   2.0000      -0.327122        -8.9014
  26   2.0000      -0.305440        -8.3115
  27   2.0000      -0.297132        -8.0854
  28   2.0000      -0.296854        -8.0778
  29   2.0000      -0.287665        -7.8278
  30   2.0000      -0.254341        -6.9210
  31   2.0000      -0.216953        -5.9036
  32   0.0000      -0.019185        -0.5220
  33   0.0000       0.039767         1.0821
  34   0.0000       0.052336         1.4241
  35   0.0000       0.072237         1.9657
  36   0.0000       0.081513         2.2181

MULLIKEN ATOMIC CHARGES
-----------------------
   0 C :   -0.288446
   1 C :   -0.201910
   2 C :   -0.122728
   3 C :    0.088221
   4 O :   -0.209588
   5 O :   -0.237746
   6 C :   -0.030266
   7 C :   -0.283577
   8 H :    0.098784
   9 H :    0.107753
  10 H :    0.116126
  11 H :    0.091536
  12 H :    0.108590
  13 H :    0.091796
  14 H :    0.112290
  15 H :    0.103644
  16 H :    0.116167
  17 H :    0.114211
  18 H :    0.111578
  19 H :    0.113564
Sum of atomic charges:    0.0000000

LOEWDIN ATOMIC CHARGES
----------------------
   0 C :   -0.342449
   1 C :   -0.227137
   2 C :   -0.246516
   3 C :    0.035091
   4 O :   -0.174177
   5 O :   -0.067014
   6 C :   -0.113833
   7 C :   -0.350979
   8 H :    0.117290
   9 H :    0.121587
  10 H :    0.120488
  11 H :    0.117837
  12 H :    0.124797
  13 H :    0.125661
  14 H :    0.141780
  15 H :    0.116174
  16 H :    0.120181
  17 H :    0.125380
  18 H :    0.129778
  19 H :    0.126059

  Mayer bond orders larger than 0.100000
B(  0-C ,  1-C ) :   1.1548 B(  0-C ,  8-H ) :   0.9537 B(  0-C ,  9-H ) :   0.9521
B(  0-C , 10-H ) :   0.9490 B(  1-C ,  2-C ) :   1.1126 B(  1-C , 11-H ) :   0.9284
B(  1-C , 12-H ) :   0.9201 B(  2-C ,  3-C ) :   1.0139 B(  2-C , 13-H ) :   0.9110
B(  2-C , 14-H ) :   0.8929 B(  3-C ,  4-O ) :   2.0534 B(  3-C ,  5-O ) :   1.2138
B(  5-O ,  6-C ) :   0.9127 B(  6-C ,  7-C ) :   1.1626 B(  6-C , 15-H ) :   0.9352
B(  6-C , 16-H ) :   0.9100 B(  7-C , 17-H ) :   0.9493 B(  7-C , 18-H ) :   0.9450
B(  7-C , 19-H ) :   0.9521

Dispersion correction           -0.014908299
FINAL SINGLE POINT ENERGY      -385.457561142246

DIPOLE MOMENT
-------------

Method             : SCF
Type of density    : Electron Density
Multiplicity       :   1
Irrep              :   0
Energy             :  -385.5325770450426148 Eh
Relativity type    :
Basis              : AO
                                X                 Y                 Z
Electronic contribution:      1.382863830       3.490370056      -1.767653234
Nuclear contribution   :     -1.111374860      -3.895230445       2.308084088
                        -----------------------------------------
Total Dipole Moment    :      0.271488970      -0.404860389       0.540430855
                        -----------------------------------------
Magnitude (a.u.)       :      0.727793723
Magnitude (Debye)      :      1.849904630

Rotational constants in cm-1:             0.141609             0.033311             0.031703
Rotational constants in MHz :          4245.335551           998.642444           950.443911

                             ****ORCA TERMINATED NORMALLY****
TOTAL RUN TIME: 0 days 0 hours 0 minutes 10 seconds 672 msec
