                         Program Version 6.0.0  -   RELEASE  -
|  1> ! r2scan-3c def2/J RI DEFGRID2 scfconv6 printgap
|  2> %output
|  3>     printlevel normal
|  4> end
|  5> * xyz 0 1
|  6> C -3.5605329806 -0.5931142589 0.4452854991
|  7> C -2.2063932499 0.1026804235 0.4926549875
|  8> C -1.2016452497 -0.571503856 -0.4538865947
|  9> C 0.1038036561 0.1742637315 -0.394055234
| 10> O 0.3656629003 1.1643966769 -1.0454780617
| 11> O 0.9244372614 -0.3532099132 0.5051379638
| 12> C 2.20029948 0.2731446359 0.721110206
| 13> C 3.2343866827 -0.2244702765 -0.277113715
| 14> H -3.4638700729 -1.6341246234 0.7421151936
| 15> H -4.2559436199 -0.1034802056 1.1214246245
| 16> H -3.9726196302 -0.5566919324 -0.559803709
| 17> H -1.8113649171 0.0731052312 1.5100264197
| 18> H -2.3161840813 1.1498914228 0.2029739363
| 19> H -1.5808050036 -0.5341669312 -1.4748166229
| 20> H -1.0389831734 -1.6037568001 -0.1477132634
| 21> H 2.075058907 1.3569325157 0.6366140308
| 22> H 2.4698169533 -2.6547e-06 1.7417215928
| 23> H 3.3122119137 -1.3071591207 -0.2277340513
| 24> H 2.9471058898 0.0649318656 -1.2856015596
| 25> H 4.1986111702 0.215984369 -0.0453940811
| 26> *
| 27>
| 28>                          ****END OF INPUT****

CARTESIAN COORDINATES (ANGSTROEM)
---------------------------------
  C     -3.560533   -0.593114    0.445285
  C     -2.206393    0.102680    0.492655
  C     -1.201645   -0.571504   -0.453887
  C      0.103804    0.174264   -0.394055
  O      0.365663    1.164397   -1.045478
  O      0.924437   -0.353210    0.505138
  C      2.200299    0.273145    0.721110
  C      3.234387   -0.224470   -0.277114
  H     -3.463870   -1.634125    0.742115
  H     -4.255944   -0.103480    1.121425
  H     -3.972620   -0.556692   -0.559804
  H     -1.811365    0.073105    1.510026
  H     -2.316184    1.149891    0.202974
  H     -1.580805   -0.534167   -1.474817
  H     -1.038983   -1.603757   -0.147713
  H      2.075059    1.356933    0.636614
  H      2.469817   -0.000003    1.741722
  H      3.312212   -1.307159   -0.227734
  H      2.947106    0.064932   -1.285602
  H      4.198611    0.215984   -0.045394

 Total Charge           Charge          ....    0
 Multiplicity           Mult            ....    1
 Number of Electrons    NEL             ....   64
 Basis Dimension        Dim             ....  222

ORBITAL ENERGIES
----------------

  NO   OCC          E(Eh)            E(eV)
   0   2.0000     -18.995425      -516.8918
   1   2.0000     -18.925766      -514.9963
   2   2.0000     -10.149952      -276.1942
   3   2.0000     -10.090411      -274.5740
   4   2.0000     -10.039923      -273.2002
   5   2.0000     -10.038348      -273.1573
   6   2.0000     -10.027677      -272.8670
   7   2.0000     -10.023308      -272.7481
   8   2.0000      -1.070119       -29.1194
   9   2.0000      -0.973519       -26.4908
  10   2.0000      -0.774706       -21.0808
  11   2.0000      -0.739086       -20.1115
  12   2.0000      -0.680586       -18.5197
  13   2.0000      -0.621701       -16.9173
  14   2.0000      -0.567396       -15.4396
  15   2.0000      -0.522813       -14.2265
  16   2.0000      -0.472366       -12.8537
  17   2.0000      -0.454821       -12.3763
  18   2.0000      -0.435744       -11.8572
  19   2.0000      -0.425674       -11.5832
  20   2.0000      -0.410399       -11.1675
  21   2.0000      -0.390078       -10.6146
  22   2.0000      -0.376832       -10.2541
  23   2.0000      -0.361145        -9.8273
  24   2.0000      -0.355765        -9.6808
  25   2.0000      -0.339047        -9.2259
  26   2.0000      -0.327828        -8.9206
  27   2.0000      -0.314305        -8.5527
  28   2.0000      -0.309577        -8.4240
  29   2.0000      -0.302419        -8.2292
  30   2.0000      -0.269261        -7.3270
  31   2.0000      -0.232574        -6.3287
  32   0.0000      -0.013672        -0.3720
  33   0.0000       0.077198         2.1007
  34   0.0000       0.092388         2.5140
  35   0.0000       0.105021         2.8578
  36   0.0000       0.122438         3.3317

MULLIKEN ATOMIC CHARGES
-----------------------
   0 C :   -0.474504
   1 C :   -0.229626
   2 C :   -0.348192
   3 C :    0.429275
   4 O :   -0.435128
   5 O :   -0.183429
   6 C :   -0.136342
   7 C :   -0.469429
   8 H :    0.144577
   9 H :    0.150788
  10 H :    0.146598
  11 H :    0.145108
  12 H :    0.157539
  13 H :    0.160894
  14 H :    0.156774
  15 H :    0.166500
  16 H :    0.147244
  17 H :    0.150777
  18 H :    0.174258
  19 H :    0.146316
Sum of atomic charges:   -0.0000000

LOEWDIN ATOMIC CHARGES
----------------------
   0 C :   -0.419620
   1 C :   -0.286941
   2 C :   -0.229692
   3 C :    0.356257
   4 O :   -0.434357
   5 O :   -0.596329
   6 C :    0.027008
   7 C :   -0.390576
   8 H :    0.150583
   9 H :    0.153184
  10 H :    0.151413
  11 H :    0.157481
  12 H :    0.161861
  13 H :    0.177002
  14 H :    0.176059
  15 H :    0.187518
  16 H :    0.177367
  17 H :    0.156816
  18 H :    0.166019
  19 H :    0.158950

  Mayer bond orders larger than 0.100000
B(  0-C ,  1-C ) :   0.8945 B(  0-C ,  8-H ) :   0.9846 B(  0-C ,  9-H ) :   0.9717
B(  0-C , 10-H ) :   0.9853 B(  1-C ,  2-C ) :   0.9267 B(  1-C , 11-H ) :   0.9603
B(  1-C , 12-H ) :   0.9604 B(  2-C ,  3-C ) :   0.9519 B(  2-C , 13-H ) :   0.9771
B(  2-C , 14-H ) :   0.9836 B(  3-C ,  4-O ) :   1.8334 B(  3-C ,  5-O ) :   1.0358
B(  5-O ,  6-C ) :   0.8236 B(  6-C ,  7-C ) :   0.9364 B(  6-C , 15-H ) :   0.9671
B(  6-C , 16-H ) :   0.9609 B(  7-C , 17-H ) :   0.9732 B(  7-C , 18-H ) :   0.9712
B(  7-C , 19-H ) :   0.9654

Dispersion correction           -0.004958066
FINAL SINGLE POINT ENERGY      -386.235756937277

DIPOLE MOMENT
-------------

Method             : SCF
Type of density    : Electron Density
Multiplicity       :   1
Irrep              :   0
Energy             :  -386.2424522121664268 Eh
Relativity type    :
Basis              : AO
                                X                 Y                 Z
Electronic contribution:      3.281343086       2.146487307      -1.511303702
Nuclear contribution   :     -3.205316911      -2.688519014       2.068912922
                        -----------------------------------------
Total Dipole Moment    :      0.076026175      -0.542031707       0.557609219
                        -----------------------------------------
Magnitude (a.u.)       :      0.781349085
Magnitude (Debye)      :      1.986031541

Rotational constants in cm-1:             0.185615             0.029717             0.028061
Rotational constants in MHz :          5564.603111           890.892477           841.244050

                             ****ORCA TERMINATED NORMALLY****
TOTAL RUN TIME: 0 days 0 hours 0 minutes 30 seconds 401 msec
