                         Program Version 6.0.0  -   RELEASE  -
|  1> ! r2scan-3c def2/J RI DEFGRID2 scfconv6 printgap
|  2> %output
|  3>     printlevel normal
|  4> end
|  5> %cpcm
|  6>     smd true
|  7>     smdsolvent "water"
|  8> end
|  9> * xyz 0 1
| 10> C -3.5605329806 -0.5931142589 0.4452854991
| 11> C -2.2063932499 0.1026804235 0.4926549875
| 12> C -1.2016452497 -0.571503856 -0.4538865947
| 13> C 0.1038036561 0.1742637315 -0.394055234
| 14> O 0.3656629003 1.1643966769 -1.0454780617
| 15> O 0.9244372614 -0.3532099132 0.5051379638
| 16> C 2.20029948 0.2731446359 0.721110206
| 17> C 3.2343866827 -0.2244702765 -0.277113715
| 18> H -3.4638700729 -1.6341246234 0.7421151936
| 19> H -4.2559436199 -0.1034802056 1.1214246245
| 20> H -3.9726196302 -0.5566919324 -0.559803709
| 21> H -1.8113649171 0.0731052312 1.5100264197
| 22> H -2.3161840813 1.1498914228 0.2029739363
| 23> H -1.5808050036 -0.5341669312 -1.4748166229
| 24> H -1.0389831734 -1.6037568001 -0.1477132634
| 25> H 2.075058907 1.3569325157 0.6366140308
| 26> H 2.4698169533 -2.6547e-06 1.7417215928
| 27> H 3.3122119137 -1.3071591207 -0.2277340513
| 28> H 2.9471058898 0.0649318656 -1.2856015596
| 29> H 4.1986111702 0.215984369 -0.0453940811
| 30> *
| 31>
| 32>                          ****END OF INPUT****

CARTESIAN COORDINATES (ANGSTROEM)
---------------------------------
  C     -3.560533   -0.593114    0.445285
  C     -2.206393    0.102680    0.492655
  C     -1.201645   -0.571504   -0.453887
  C      0.103804    0.174264   -0.394055
  O      0.365663    1.164397   -1.045478
  O      0.924437   -0.353210    0.505138
  C      2.200299    0.273145    0.721110
  C      3.234387   -0.224470   -0.277114
  H     -3.463870   -1.634125    0.742115
  H     -4.255944   -0.103480    1.121425
  H     -3.972620   -0.556692   -0.559804
  H     -1.811365    0.073105    1.510026
  H     -2.316184    1.149891    0.202974
  H     -1.580805   -0.534167   -1.474817
  H     -1.038983   -1.603757   -0.147713
  H      2.075059    1.356933    0.636614
  H      2.469817   -0.000003    1.741722
  H      3.312212   -1.307159   -0.227734
  H      2.947106    0.064932   -1.285602
  H      4.198611    0.215984   -0.045394

 Total Charge           Charge          ....    0
 Multiplicity           Mult            ....    1
 Number of Electrons    NEL             ....   64
 Basis Dimension        Dim             ....  222

ORBITAL ENERGIES
----------------

  NO   OCC          E(Eh)            E(eV)
   0   2.0000     -19.001976      -517.0701
   1   2.0000     -18.942675      -515.4564
   2   2.0000     -10.161459      -276.5074
   3   2.0000     -10.083213      -274.3782
   4   2.0000     -10.034567      -273.0545
   5   2.0000     -10.030423      -272.9417
   6   2.0000     -10.018192      -272.6089
   7   2.0000     -10.011978      -272.4398
   8   2.0000      -1.078357       -29.3436
   9   2.0000      -0.988250       -26.8917
  10   2.0000      -0.769625       -20.9425
  11   2.0000      -0.732483       -19.9319
  12   2.0000      -0.674146       -18.3445
  13   2.0000      -0.616842       -16.7851
  14   2.0000      -0.559603       -15.2276
  15   2.0000      -0.521320       -14.1858
  16   2.0000      -0.472354       -12.8534
  17   2.0000      -0.461548       -12.5594
  18   2.0000      -0.436316       -11.8728
  19   2.0000      -0.425132       -11.5684
  20   2.0000      -0.409167       -11.1340
  21   2.0000      -0.383986       -10.4488
  22   2.0000      -0.371639       -10.1128
  23   2.0000      -0.355612        -9.6767
  24   2.0000      -0.349600        -9.5131
  25   2.0000      -0.337413        -9.1815
  26   2.0000      -0.322342        -8.7714
  27   2.0000      -0.308800        -8.4029
  28   2.0000      -0.301052        -8.1920
  29   2.0000      -0.299949        -8.1620
  30   2.0000      -0.277014        -7.5379
  31   2.0000      -0.249234        -6.7820
  32   0.0000      -0.022721        -0.6183
  33   0.0000       0.079345         2.1591
  34   0.0000       0.099403         2.7049
  35   0.0000       0.115065         3.1311
  36   0.0000       0.130041         3.5386

MULLIKEN ATOMIC CHARGES
-----------------------
   0 C :   -0.518562
   1 C :   -0.218732
   2 C :   -0.372041
   3 C :    0.467305
   4 O :   -0.518964
   5 O :   -0.201233
   6 C :   -0.143775
   7 C :   -0.493720
   8 H :    0.159056
   9 H :    0.162427
  10 H :    0.159434
  11 H :    0.156801
  12 H :    0.158454
  13 H :    0.178119
  14 H :    0.176240
  15 H :    0.171304
  16 H :    0.173768
  17 H :    0.165371
  18 H :    0.168636
  19 H :    0.170112
Sum of atomic charges:    0.0000000

LOEWDIN ATOMIC CHARGES
----------------------
   0 C :   -0.424752
   1 C :   -0.284998
   2 C :   -0.227595
   3 C :    0.365071
   4 O :   -0.494874
   5 O :   -0.598170
   6 C :    0.031666
   7 C :   -0.393390
   8 H :    0.154869
   9 H :    0.156464
  10 H :    0.154820
  11 H :    0.161294
  12 H :    0.161495
  13 H :    0.183171
  14 H :    0.184801
  15 H :    0.188984
  16 H :    0.188976
  17 H :    0.161898
  18 H :    0.162503
  19 H :    0.167765

  Mayer bond orders larger than 0.100000
B(  0-C ,  1-C ) :   0.8871 B(  0-C ,  8-H ) :   0.9818 B(  0-C ,  9-H ) :   0.9685
B(  0-C , 10-H ) :   0.9828 B(  1-C ,  2-C ) :   0.9149 B(  1-C , 11-H ) :   0.9575
B(  1-C , 12-H ) :   0.9601 B(  2-C ,  3-C ) :   0.9511 B(  2-C , 13-H ) :   0.9740
B(  2-C , 14-H ) :   0.9734 B(  3-C ,  4-O ) :   1.7625 B(  3-C ,  5-O ) :   1.0602
B(  5-O ,  6-C ) :   0.8043 B(  6-C ,  7-C ) :   0.9347 B(  6-C , 15-H ) :   0.9635
B(  6-C , 16-H ) :   0.9513 B(  7-C , 17-H ) :   0.9693 B(  7-C , 18-H ) :   0.9692
B(  7-C , 19-H ) :   0.9603

Dispersion correction           -0.004958066
FINAL SINGLE POINT ENERGY      -386.240783935578

DIPOLE MOMENT
-------------

Method             : SCF
Type of density    : Electron Density
Multiplicity       :   1
Irrep              :   0
Energy             :  -386.2474792104667927 Eh
Relativity type    :
Basis              : AO
                                X                 Y                 Z
Electronic contribution:      3.303265851       1.884122337      -1.263393508
Nuclear contribution   :     -3.205316911      -2.688519014       2.068912922
                        -----------------------------------------
Total Dipole Moment    :      0.097948940      -0.804396678       0.805519414
                        -----------------------------------------
Magnitude (a.u.)       :      1.142588962
Magnitude (Debye)      :      2.904230339

Rotational constants in cm-1:             0.185615             0.029717             0.028061
Rotational constants in MHz :          5564.603111           890.892477           841.244050

                             ****ORCA TERMINATED NORMALLY****
TOTAL RUN TIME: 0 days 0 hours 0 minutes 37 seconds 2 msec
