                         Program Version 6.0.0  -   RELEASE  -
|  1> ! r2scan-3c def2/J RI DEFGRID2 scfconv6 printgap
|  2> %output
|  3>     printlevel normal
|  4> end
|  5> * xyz 0 1
|  6> C 2.2389173761 0.6335105383 -1.0672131241
|  7> C 1.3867693905 -0.3567560551 -0.2906264182
|  8> C 2.1978482281 -1.1359174265 0.7318817188
|  9> S 0.0236129967 0.5518295265 0.5705710391
| 10> C -1.4653834379 -0.3504088974 -0.0479798958
| 11> C -2.6049436864 -0.0929811464 0.924244303
| 12> C -1.807613939 0.1012233399 -1.4577582541
| 13> H 1.6292712832 1.1890110597 -1.7758728935
| 14> H 2.70332318 1.3421234979 -0.3852851754
| 15> H 3.0193226321 0.1059236251 -1.6112782901
| 16> H 0.8889785339 -1.04381871 -0.9781521951
| 17> H 1.5591075481 -1.8198091357 1.2862538514
| 18> H 2.6633265214 -0.4522329714 1.4381252959
| 19> H 2.9757981442 -1.7092118796 0.2321872097
| 20> H -1.1955140655 -1.4099401729 -0.0349463541
| 21> H -2.8360668385 0.9692767123 0.9563753289
| 22> H -3.4915208833 -0.6371285761 0.6074050891
| 23> H -2.3308719421 -0.4151840195 1.9257781324
| 24> H -2.6720081205 -0.4489018948 -1.8235729661
| 25> H -0.9757439792 -0.0707756973 -2.1375701357
| 26> H -2.0401516775 1.1637555465 -1.4595476011
| 27> *
| 28>
| 29>                          ****END OF INPUT****

CARTESIAN COORDINATES (ANGSTROEM)
---------------------------------
  C      2.238917    0.633511   -1.067213
  C      1.386769   -0.356756   -0.290626
  C      2.197848   -1.135917    0.731882
  S      0.023613    0.551830    0.570571
  C     -1.465383   -0.350409   -0.047980
  C     -2.604944   -0.092981    0.924244
  C     -1.807614    0.101223   -1.457758
  H      1.629271    1.189011   -1.775873
  H      2.703323    1.342123   -0.385285
  H      3.019323    0.105924   -1.611278
  H      0.888979   -1.043819   -0.978152
  H      1.559108   -1.819809    1.286254
  H      2.663327   -0.452233    1.438125
  H      2.975798   -1.709212    0.232187
  H     -1.195514   -1.409940   -0.034946
  H     -2.836067    0.969277    0.956375
  H     -3.491521   -0.637129    0.607405
  H     -2.330872   -0.415184    1.925778
  H     -2.672008   -0.448902   -1.823573
  H     -0.975744   -0.070776   -2.137570
  H     -2.040152    1.163756   -1.459548

 Total Charge           Charge          ....    0
 Multiplicity           Mult            ....    1
 Number of Electrons    NEL             ....   66
 Basis Dimension        Dim             ....  211

ORBITAL ENERGIES
----------------

  NO   OCC          E(Eh)            E(eV)
   0   2.0000     -88.533814     -2409.1276
   1   2.0000     -10.066890      -273.9340
   2   2.0000     -10.065657      -273.9005
   3   2.0000     -10.024171      -272.7716
   4   2.0000     -10.022391      -272.7231
   5   2.0000     -10.021528      -272.6996
   6   2.0000     -10.020874      -272.6819
   7   2.0000      -7.828165      -213.0152
   8   2.0000      -5.775528      -157.1601
   9   2.0000      -5.772080      -157.0663
  10   2.0000      -5.764743      -156.8666
  11   2.0000      -0.792778       -21.5726
  12   2.0000      -0.760035       -20.6816
  13   2.0000      -0.658911       -17.9299
  14   2.0000      -0.656092       -17.8532
  15   2.0000      -0.648329       -17.6419
  16   2.0000      -0.548355       -14.9215
  17   2.0000      -0.522022       -14.2050
  18   2.0000      -0.444510       -12.0957
  19   2.0000      -0.431054       -11.7296
  20   2.0000      -0.408798       -11.1240
  21   2.0000      -0.390274       -10.6199
  22   2.0000      -0.382706       -10.4139
  23   2.0000      -0.377588       -10.2747
  24   2.0000      -0.359713        -9.7883
  25   2.0000      -0.358310        -9.7501
  26   2.0000      -0.327794        -8.9197
  27   2.0000      -0.321121        -8.7381
  28   2.0000      -0.316837        -8.6216
  29   2.0000      -0.313706        -8.5364
  30   2.0000      -0.290870        -7.9150
  31   2.0000      -0.264519        -7.1979
  32   2.0000      -0.185733        -5.0541
  33   0.0000       0.014306         0.3893
  34   0.0000       0.049550         1.3483
  35   0.0000       0.075480         2.0539
  36   0.0000       0.114705         3.1213
  37   0.0000       0.120057         3.2669

MULLIKEN ATOMIC CHARGES
-----------------------
   0 C :   -0.464085
   1 C :   -0.019555
   2 C :   -0.454665
   3 S :   -0.176956
   4 C :   -0.065372
   5 C :   -0.475910
   6 C :   -0.436945
   7 H :    0.155878
   8 H :    0.151250
   9 H :    0.141492
  10 H :    0.145495
  11 H :    0.151518
  12 H :    0.152365
  13 H :    0.139941
  14 H :    0.154755
  15 H :    0.155351
  16 H :    0.144581
  17 H :    0.161314
  18 H :    0.138966
  19 H :    0.141905
  20 H :    0.158678
Sum of atomic charges:    0.0000000

LOEWDIN ATOMIC CHARGES
----------------------
   0 C :   -0.421292
   1 C :   -0.288049
   2 C :   -0.420838
   3 S :    0.063189
   4 C :   -0.288949
   5 C :   -0.418746
   6 C :   -0.420789
   7 H :    0.158546
   8 H :    0.157316
   9 H :    0.151744
  10 H :    0.163674
  11 H :    0.157494
  12 H :    0.157910
  13 H :    0.150429
  14 H :    0.160105
  15 H :    0.158392
  16 H :    0.155284
  17 H :    0.160782
  18 H :    0.151044
  19 H :    0.152675
  20 H :    0.160079

  Mayer bond orders larger than 0.100000
B(  0-C ,  1-C ) :   0.9232 B(  0-C ,  7-H ) :   0.9689 B(  0-C ,  8-H ) :   0.9780
B(  0-C ,  9-H ) :   0.9686 B(  1-C ,  2-C ) :   0.9261 B(  1-C ,  3-S ) :   0.8428
B(  1-C , 10-H ) :   0.9277 B(  2-C , 11-H ) :   0.9686 B(  2-C , 12-H ) :   0.9806
B(  2-C , 13-H ) :   0.9687 B(  3-S ,  4-C ) :   0.9205 B(  4-C ,  5-C ) :   0.9218
B(  4-C ,  6-C ) :   0.9026 B(  4-C , 14-H ) :   0.9410 B(  5-C , 15-H ) :   0.9788
B(  5-C , 16-H ) :   0.9667 B(  5-C , 17-H ) :   0.9699 B(  6-C , 18-H ) :   0.9639
B(  6-C , 19-H ) :   0.9668 B(  6-C , 20-H ) :   0.9803

Dispersion correction           -0.006077950
FINAL SINGLE POINT ENERGY      -635.157018212588

DIPOLE MOMENT
-------------

Method             : SCF
Type of density    : Electron Density
Multiplicity       :   1
Irrep              :   0
Energy             :  -635.1638780325090465 Eh
Relativity type    :
Basis              : AO
                                X                 Y                 Z
Electronic contribution:      0.025579868       2.513991795       3.111940596
Nuclear contribution   :     -0.097079751      -3.052734259      -3.544113738
                        -----------------------------------------
Total Dipole Moment    :     -0.071499883      -0.538742464      -0.432173142
                        -----------------------------------------
Magnitude (a.u.)       :      0.694355313
Magnitude (Debye)      :      1.764910945

Rotational constants in cm-1:             0.119322             0.041051             0.036233
Rotational constants in MHz :          3577.195305          1230.685051          1086.223073

                             ****ORCA TERMINATED NORMALLY****
TOTAL RUN TIME: 0 days 0 hours 0 minutes 24 seconds 688 msec
