                         Program Version 6.0.0  -   RELEASE  -
|  1> ! r2scan-3c def2/J RI DEFGRID2 scfconv6 printgap
|  2> %output
|  3>     printlevel normal
|  4> end
|  5> %cpcm
|  6>     smd true
|  7>     smdsolvent "water"
|  8> end
|  9> * xyz 0 1
| 10> C 2.2389173761 0.6335105383 -1.0672131241
| 11> C 1.3867693905 -0.3567560551 -0.2906264182
| 12> C 2.1978482281 -1.1359174265 0.7318817188
| 13> S 0.0236129967 0.5518295265 0.5705710391
| 14> C -1.4653834379 -0.3504088974 -0.0479798958
| 15> C -2.6049436864 -0.0929811464 0.924244303
| 16> C -1.807613939 0.1012233399 -1.4577582541
| 17> H 1.6292712832 1.1890110597 -1.7758728935
| 18> H 2.70332318 1.3421234979 -0.3852851754
| 19> H 3.0193226321 0.1059236251 -1.6112782901
| 20> H 0.8889785339 -1.04381871 -0.9781521951
| 21> H 1.5591075481 -1.8198091357 1.2862538514
| 22> H 2.6633265214 -0.4522329714 1.4381252959
| 23> H 2.9757981442 -1.7092118796 0.2321872097
| 24> H -1.1955140655 -1.4099401729 -0.0349463541
| 25> H -2.8360668385 0.9692767123 0.9563753289
| 26> H -3.4915208833 -0.6371285761 0.6074050891
| 27> H -2.3308719421 -0.4151840195 1.9257781324
| 28> H -2.6720081205 -0.4489018948 -1.8235729661
| 29> H -0.9757439792 -0.0707756973 -2.1375701357
| 30> H -2.0401516775 1.1637555465 -1.4595476011
| 31> *
| 32>
| 33>                          ****END OF INPUT****

CARTESIAN COORDINATES (ANGSTROEM)
---------------------------------
  C      2.238917    0.633511   -1.067213
  C      1.386769   -0.356756   -0.290626
  C      2.197848   -1.135917    0.731882
  S      0.023613    0.551830    0.570571
  C     -1.465383   -0.350409   -0.047980
  C     -2.604944   -0.092981    0.924244
  C     -1.807614    0.101223   -1.457758
  H      1.629271    1.189011   -1.775873
  H      2.703323    1.342123   -0.385285
  H      3.019323    0.105924   -1.611278
  H      0.888979   -1.043819   -0.978152
  H      1.559108   -1.819809    1.286254
  H      2.663327   -0.452233    1.438125
  H      2.975798   -1.709212    0.232187
  H     -1.195514   -1.409940   -0.034946
  H     -2.836067    0.969277    0.956375
  H     -3.491521   -0.637129    0.607405
  H     -2.330872   -0.415184    1.925778
  H     -2.672008   -0.448902   -1.823573
  H     -0.975744   -0.070776   -2.137570
  H     -2.040152    1.163756   -1.459548

 Total Charge           Charge          ....    0
 Multiplicity           Mult            ....    1
 Number of Electrons    NEL             ....   66
 Basis Dimension        Dim             ....  211

ORBITAL ENERGIES
----------------

  NO   OCC          E(Eh)            E(eV)
   0   2.0000     -88.533008     -2409.1056
   1   2.0000     -10.058729      -273.7119
   2   2.0000     -10.057410      -273.6760
   3   2.0000     -10.015176      -272.5268
   4   2.0000     -10.012893      -272.4647
   5   2.0000     -10.012367      -272.4503
   6   2.0000     -10.012143      -272.4443
   7   2.0000      -7.827441      -212.9955
   8   2.0000      -5.774567      -157.1340
   9   2.0000      -5.771275      -157.0444
  10   2.0000      -5.764386      -156.8569
  11   2.0000      -0.785809       -21.3829
  12   2.0000      -0.751518       -20.4499
  13   2.0000      -0.650153       -17.6916
  14   2.0000      -0.648032       -17.6338
  15   2.0000      -0.642975       -17.4962
  16   2.0000      -0.539774       -14.6880
  17   2.0000      -0.514167       -13.9912
  18   2.0000      -0.436028       -11.8649
  19   2.0000      -0.422138       -11.4870
  20   2.0000      -0.400672       -10.9028
  21   2.0000      -0.381686       -10.3862
  22   2.0000      -0.374626       -10.1941
  23   2.0000      -0.368961       -10.0399
  24   2.0000      -0.350530        -9.5384
  25   2.0000      -0.349634        -9.5140
  26   2.0000      -0.318883        -8.6772
  27   2.0000      -0.312573        -8.5055
  28   2.0000      -0.308687        -8.3998
  29   2.0000      -0.304128        -8.2757
  30   2.0000      -0.283742        -7.7210
  31   2.0000      -0.261725        -7.1219
  32   2.0000      -0.186484        -5.0745
  33   0.0000       0.016512         0.4493
  34   0.0000       0.053371         1.4523
  35   0.0000       0.086635         2.3575
  36   0.0000       0.124362         3.3841
  37   0.0000       0.129593         3.5264

MULLIKEN ATOMIC CHARGES
-----------------------
   0 C :   -0.515208
   1 C :    0.023350
   2 C :   -0.511671
   3 S :   -0.252943
   4 C :   -0.032276
   5 C :   -0.512993
   6 C :   -0.491847
   7 H :    0.162166
   8 H :    0.162577
   9 H :    0.159782
  10 H :    0.174255
  11 H :    0.160901
  12 H :    0.162992
  13 H :    0.158080
  14 H :    0.177429
  15 H :    0.165131
  16 H :    0.164801
  17 H :    0.164418
  18 H :    0.156658
  19 H :    0.160443
  20 H :    0.163955
Sum of atomic charges:    0.0000000

LOEWDIN ATOMIC CHARGES
----------------------
   0 C :   -0.428895
   1 C :   -0.280032
   2 C :   -0.428651
   3 S :    0.024310
   4 C :   -0.281843
   5 C :   -0.426145
   6 C :   -0.426896
   7 H :    0.158478
   8 H :    0.158432
   9 H :    0.158417
  10 H :    0.174080
  11 H :    0.158293
  12 H :    0.158472
  13 H :    0.157117
  14 H :    0.168717
  15 H :    0.159624
  16 H :    0.162396
  17 H :    0.159894
  18 H :    0.157512
  19 H :    0.157561
  20 H :    0.159158

  Mayer bond orders larger than 0.100000
B(  0-C ,  1-C ) :   0.9070 B(  0-C ,  7-H ) :   0.9696 B(  0-C ,  8-H ) :   0.9774
B(  0-C ,  9-H ) :   0.9644 B(  1-C ,  2-C ) :   0.9093 B(  1-C ,  3-S ) :   0.8217
B(  1-C , 10-H ) :   0.9249 B(  2-C , 11-H ) :   0.9692 B(  2-C , 12-H ) :   0.9812
B(  2-C , 13-H ) :   0.9644 B(  3-S ,  4-C ) :   0.9050 B(  4-C ,  5-C ) :   0.9082
B(  4-C ,  6-C ) :   0.8946 B(  4-C , 14-H ) :   0.9382 B(  5-C , 15-H ) :   0.9765
B(  5-C , 16-H ) :   0.9619 B(  5-C , 17-H ) :   0.9695 B(  6-C , 18-H ) :   0.9604
B(  6-C , 19-H ) :   0.9645 B(  6-C , 20-H ) :   0.9815

Dispersion correction           -0.006077950
FINAL SINGLE POINT ENERGY      -635.157717499658

DIPOLE MOMENT
-------------

Method             : SCF
Type of density    : Electron Density
Multiplicity       :   1
Irrep              :   0
Energy             :  -635.1645773195798483 Eh
Relativity type    :
Basis              : AO
                                X                 Y                 Z
Electronic contribution:      0.006652006       2.229815607       2.881042556
Nuclear contribution   :     -0.097079751      -3.052734259      -3.544113738
                        -----------------------------------------
Total Dipole Moment    :     -0.090427745      -0.822918651      -0.663071182
                        -----------------------------------------
Magnitude (a.u.)       :      1.060676989
Magnitude (Debye)      :      2.696026650

Rotational constants in cm-1:             0.119322             0.041051             0.036233
Rotational constants in MHz :          3577.195305          1230.685051          1086.223073

                             ****ORCA TERMINATED NORMALLY****
TOTAL RUN TIME: 0 days 0 hours 0 minutes 29 seconds 424 msec
