                         Program Version 6.0.0  -   RELEASE  -
|  1> ! pbe def2-sv(p) def2/J RI DEFGRID1 loosescf d4 GCP(DFT/SV(P)) printgap
|  2> %output
|  3>     printlevel normal
|  4> end
|  5> * xyz 0 1
|  6> C -3.2489854994 -0.6599106618 -0.5960271943
|  7> C -2.5367345911 -0.1549455459 0.6538375541
|  8> C -1.8160552609 1.1765343318 0.4452020204
|  9> C -0.6950937379 1.1385289816 -0.5718355183
| 10> I 0.9490408529 -0.1660356449 0.0145606127
| 11> H -2.540063963 -0.930735752 -1.3747712827
| 12> H -3.8330487516 -1.5451315469 -0.3582408941
| 13> H -3.9216260321 0.1003237247 -0.9873492872
| 14> H -1.8201452476 -0.9070059665 0.9921222441
| 15> H -3.2699660234 -0.0207971366 1.451376116
| 16> H -2.5363558586 1.9196295032 0.0902249553
| 17> H -1.4257873719 1.5244499207 1.4044086755
| 18> H -0.2449527888 2.1196987858 -0.695541754
| 19> H -1.0303225087 0.7675981362 -1.5353739663
| 20> *
| 21>
| 22>                          ****END OF INPUT****

CARTESIAN COORDINATES (ANGSTROEM)
---------------------------------
  C     -3.248985   -0.659911   -0.596027
  C     -2.536735   -0.154946    0.653838
  C     -1.816055    1.176534    0.445202
  C     -0.695094    1.138529   -0.571836
  I      0.949041   -0.166036    0.014561
  H     -2.540064   -0.930736   -1.374771
  H     -3.833049   -1.545132   -0.358241
  H     -3.921626    0.100324   -0.987349
  H     -1.820145   -0.907006    0.992122
  H     -3.269966   -0.020797    1.451376
  H     -2.536356    1.919630    0.090225
  H     -1.425787    1.524450    1.404409
  H     -0.244953    2.119699   -0.695542
  H     -1.030323    0.767598   -1.535374

 Total Charge           Charge          ....    0
 Multiplicity           Mult            ....    1
 Number of Electrons    NEL             ....   58
 Basis Dimension        Dim             ....  100

ORBITAL ENERGIES
----------------

  NO   OCC          E(Eh)            E(eV)
   0   2.0000      -9.935220      -270.3511
   1   2.0000      -9.901753      -269.4404
   2   2.0000      -9.889724      -269.1131
   3   2.0000      -9.880095      -268.8511
   4   2.0000      -6.594502      -179.4455
   5   2.0000      -4.666150      -126.9724
   6   2.0000      -4.649600      -126.5220
   7   2.0000      -4.649318      -126.5144
   8   2.0000      -1.802229       -49.0411
   9   2.0000      -1.797935       -48.9243
  10   2.0000      -1.797664       -48.9169
  11   2.0000      -1.784336       -48.5543
  12   2.0000      -1.784316       -48.5537
  13   2.0000      -0.737654       -20.0726
  14   2.0000      -0.672889       -18.3102
  15   2.0000      -0.618783       -16.8379
  16   2.0000      -0.570136       -15.5142
  17   2.0000      -0.507032       -13.7970
  18   2.0000      -0.430242       -11.7075
  19   2.0000      -0.424073       -11.5396
  20   2.0000      -0.374906       -10.2017
  21   2.0000      -0.363947        -9.9035
  22   2.0000      -0.358709        -9.7610
  23   2.0000      -0.316842        -8.6217
  24   2.0000      -0.298042        -8.1101
  25   2.0000      -0.296079        -8.0567
  26   2.0000      -0.288445        -7.8490
  27   2.0000      -0.219002        -5.9594
  28   2.0000      -0.217317        -5.9135
  29   0.0000      -0.055523        -1.5109
  30   0.0000       0.030713         0.8357
  31   0.0000       0.061544         1.6747
  32   0.0000       0.072783         1.9805
  33   0.0000       0.083151         2.2627

MULLIKEN ATOMIC CHARGES
-----------------------
   0 C :   -0.297652
   1 C :   -0.183882
   2 C :   -0.146166
   3 C :   -0.357953
   4 I :   -0.051837
   5 H :    0.112103
   6 H :    0.108698
   7 H :    0.097861
   8 H :    0.109824
   9 H :    0.091365
  10 H :    0.098447
  11 H :    0.107139
  12 H :    0.154990
  13 H :    0.157063
Sum of atomic charges:   -0.0000000

LOEWDIN ATOMIC CHARGES
----------------------
   0 C :   -0.343961
   1 C :   -0.241043
   2 C :   -0.243834
   3 C :   -0.330016
   4 I :    0.049557
   5 H :    0.118460
   6 H :    0.123732
   7 H :    0.116068
   8 H :    0.117994
   9 H :    0.119283
  10 H :    0.127308
  11 H :    0.123894
  12 H :    0.132934
  13 H :    0.129624

  Mayer bond orders larger than 0.100000
B(  0-C ,  1-C ) :   1.1475 B(  0-C ,  5-H ) :   0.9493 B(  0-C ,  6-H ) :   0.9512
B(  0-C ,  7-H ) :   0.9556 B(  1-C ,  2-C ) :   1.1232 B(  1-C ,  8-H ) :   0.9164
B(  1-C ,  9-H ) :   0.9265 B(  2-C ,  3-C ) :   1.1041 B(  2-C , 10-H ) :   0.9017
B(  2-C , 11-H ) :   0.9231 B(  3-C ,  4-I ) :   1.0336 B(  3-C , 12-H ) :   0.9230
B(  3-C , 13-H ) :   0.9156

Dispersion correction           -0.011493514
FINAL SINGLE POINT ENERGY      -455.118796966908

DIPOLE MOMENT
-------------

Method             : SCF
Type of density    : Electron Density
Multiplicity       :   1
Irrep              :   0
Energy             :  -455.1674499514581385 Eh
Relativity type    :
Basis              : AO
                                X                 Y                 Z
Electronic contribution:     87.579851268     -14.520483971       1.909705594
Nuclear contribution   :    -88.203058613      14.887197710      -2.006933625
                        -----------------------------------------
Total Dipole Moment    :     -0.623207345       0.366713739      -0.097228031
                        -----------------------------------------
Magnitude (a.u.)       :      0.729602392
Magnitude (Debye)      :      1.854501902

Rotational constants in cm-1:             0.206212             0.037261             0.035041
Rotational constants in MHz :          6182.094046          1117.048382          1050.497312

                             ****ORCA TERMINATED NORMALLY****
TOTAL RUN TIME: 0 days 0 hours 0 minutes 14 seconds 220 msec
