                         Program Version 6.0.0  -   RELEASE  -
|  1> ! pbe def2-sv(p) def2/J RI DEFGRID1 loosescf d4 GCP(DFT/SV(P)) printgap
|  2> %output
|  3>     printlevel normal
|  4> end
|  5> * xyz 0 1
|  6> C -3.0002852662 -0.9169927441 -0.2508574895
|  7> C -2.3259795303 0.4111942047 -0.5725285621
|  8> C -1.2585110537 0.7928832165 0.4593398959
|  9> C 0.0063141884 -0.0171972981 0.3287545924
| 10> O 0.0734185006 -1.205041961 0.0949982731
| 11> O 1.0768088179 0.7485291976 0.5233572166
| 12> C 2.3778702881 0.1427631945 0.4433988445
| 13> C 2.8949994082 0.1460896461 -0.9871086736
| 14> H -3.727723521 -1.1665360801 -1.018790333
| 15> H -2.2602670964 -1.7114635186 -0.202929382
| 16> H -3.5129277985 -0.8623890217 0.7067345102
| 17> H -3.0769968457 1.2022084688 -0.595177973
| 18> H -1.8659849022 0.3552941354 -1.5610436327
| 19> H -1.6512599793 0.6230374741 1.4645614928
| 20> H -0.9852362086 1.8441147494 0.3704730669
| 21> H 3.0060672383 0.7515040032 1.0943439224
| 22> H 2.3108864674 -0.8800660751 0.826590668
| 23> H 2.9043258584 1.1595652882 -1.3788412822
| 24> H 3.9025949798 -0.2559714849 -1.0066415728
| 25> H 2.2563711351 -0.4710436165 -1.6151750078
| 26> *
| 27>
| 28>                          ****END OF INPUT****

CARTESIAN COORDINATES (ANGSTROEM)
---------------------------------
  C     -3.000285   -0.916993   -0.250857
  C     -2.325980    0.411194   -0.572529
  C     -1.258511    0.792883    0.459340
  C      0.006314   -0.017197    0.328755
  O      0.073419   -1.205042    0.094998
  O      1.076809    0.748529    0.523357
  C      2.377870    0.142763    0.443399
  C      2.894999    0.146090   -0.987109
  H     -3.727724   -1.166536   -1.018790
  H     -2.260267   -1.711464   -0.202929
  H     -3.512928   -0.862389    0.706735
  H     -3.076997    1.202208   -0.595178
  H     -1.865985    0.355294   -1.561044
  H     -1.651260    0.623037    1.464561
  H     -0.985236    1.844115    0.370473
  H      3.006067    0.751504    1.094344
  H      2.310886   -0.880066    0.826591
  H      2.904326    1.159565   -1.378841
  H      3.902595   -0.255971   -1.006642
  H      2.256371   -0.471044   -1.615175

 Total Charge           Charge          ....    0
 Multiplicity           Mult            ....    1
 Number of Electrons    NEL             ....   64
 Basis Dimension        Dim             ....  136

ORBITAL ENERGIES
----------------

  NO   OCC          E(Eh)            E(eV)
   0   2.0000     -18.797379      -511.5027
   1   2.0000     -18.734095      -509.7807
   2   2.0000     -10.006987      -272.3040
   3   2.0000      -9.946263      -270.6516
   4   2.0000      -9.897291      -269.3190
   5   2.0000      -9.890041      -269.1217
   6   2.0000      -9.887195      -269.0442
   7   2.0000      -9.866114      -268.4706
   8   2.0000      -1.004492       -27.3336
   9   2.0000      -0.910753       -24.7829
  10   2.0000      -0.725033       -19.7292
  11   2.0000      -0.696250       -18.9459
  12   2.0000      -0.635294       -17.2872
  13   2.0000      -0.586744       -15.9661
  14   2.0000      -0.531726       -14.4690
  15   2.0000      -0.493233       -13.4215
  16   2.0000      -0.453748       -12.3471
  17   2.0000      -0.430443       -11.7130
  18   2.0000      -0.421166       -11.4605
  19   2.0000      -0.399895       -10.8817
  20   2.0000      -0.385354       -10.4860
  21   2.0000      -0.372590       -10.1387
  22   2.0000      -0.366185        -9.9644
  23   2.0000      -0.351998        -9.5784
  24   2.0000      -0.331848        -9.0300
  25   2.0000      -0.326489        -8.8842
  26   2.0000      -0.301292        -8.1986
  27   2.0000      -0.298671        -8.1273
  28   2.0000      -0.295220        -8.0334
  29   2.0000      -0.287609        -7.8262
  30   2.0000      -0.256864        -6.9896
  31   2.0000      -0.217435        -5.9167
  32   0.0000      -0.020739        -0.5643
  33   0.0000       0.041008         1.1159
  34   0.0000       0.056929         1.5491
  35   0.0000       0.076776         2.0892
  36   0.0000       0.084222         2.2918

MULLIKEN ATOMIC CHARGES
-----------------------
   0 C :   -0.293588
   1 C :   -0.183455
   2 C :   -0.147974
   3 C :    0.107947
   4 O :   -0.204623
   5 O :   -0.237551
   6 C :   -0.014392
   7 C :   -0.302761
   8 H :    0.099239
   9 H :    0.130189
  10 H :    0.091206
  11 H :    0.089608
  12 H :    0.094906
  13 H :    0.113600
  14 H :    0.099248
  15 H :    0.101426
  16 H :    0.107137
  17 H :    0.112699
  18 H :    0.111887
  19 H :    0.125253
Sum of atomic charges:   -0.0000000

LOEWDIN ATOMIC CHARGES
----------------------
   0 C :   -0.349827
   1 C :   -0.225396
   2 C :   -0.249147
   3 C :    0.043006
   4 O :   -0.167924
   5 O :   -0.068535
   6 C :   -0.114212
   7 C :   -0.355769
   8 H :    0.117528
   9 H :    0.126886
  10 H :    0.113766
  11 H :    0.117740
  12 H :    0.119355
  13 H :    0.142338
  14 H :    0.130650
  15 H :    0.116792
  16 H :    0.118853
  17 H :    0.124054
  18 H :    0.129995
  19 H :    0.129846

  Mayer bond orders larger than 0.100000
B(  0-C ,  1-C ) :   1.1480 B(  0-C ,  8-H ) :   0.9501 B(  0-C ,  9-H ) :   0.9422
B(  0-C , 10-H ) :   0.9536 B(  1-C ,  2-C ) :   1.0987 B(  1-C , 11-H ) :   0.9291
B(  1-C , 12-H ) :   0.9325 B(  2-C ,  3-C ) :   1.0259 B(  2-C , 13-H ) :   0.8912
B(  2-C , 14-H ) :   0.9090 B(  3-C ,  4-O ) :   2.0202 B(  3-C ,  5-O ) :   1.2193
B(  5-O ,  6-C ) :   0.9229 B(  6-C ,  7-C ) :   1.1728 B(  6-C , 15-H ) :   0.9372
B(  6-C , 16-H ) :   0.9127 B(  7-C , 17-H ) :   0.9492 B(  7-C , 18-H ) :   0.9446
B(  7-C , 19-H ) :   0.9471

Dispersion correction           -0.015086866
FINAL SINGLE POINT ENERGY      -385.457455873977

DIPOLE MOMENT
-------------

Method             : SCF
Type of density    : Electron Density
Multiplicity       :   1
Irrep              :   0
Energy             :  -385.5328951891739848 Eh
Relativity type    :
Basis              : AO
                                X                 Y                 Z
Electronic contribution:      2.849987777       0.046144697       2.789460966
Nuclear contribution   :     -2.516135680       0.545111368      -2.726426999
                        -----------------------------------------
Total Dipole Moment    :      0.333852097       0.591256065       0.063033967
                        -----------------------------------------
Magnitude (a.u.)       :      0.681919524
Magnitude (Debye)      :      1.733301683

Rotational constants in cm-1:             0.162143             0.032870             0.031227
Rotational constants in MHz :          4860.916736           985.427816           936.147413

                             ****ORCA TERMINATED NORMALLY****
TOTAL RUN TIME: 0 days 0 hours 0 minutes 11 seconds 988 msec
