                         Program Version 6.0.0  -   RELEASE  -
|  1> ! r2scan-3c def2/J RI DEFGRID2 scfconv6 printgap
|  2> %output
|  3>     printlevel normal
|  4> end
|  5> * xyz 0 1
|  6> C -3.4667636222 1.9168520392 0.5608985979
|  7> C -3.1458375554 0.6824548071 -0.2759989135
|  8> H -3.6038170758 0.7567606049 -1.2652307636
|  9> C -1.6619198947 0.4180752594 -0.4516116197
| 10> C -1.2211813562 -0.1927554069 -1.6443967536
| 11> C 0.0982990074 -0.477671692 -1.8434484384
| 12> C 1.0609639003 -0.1707103498 -0.8566537912
| 13> C 2.4260383198 -0.4488468697 -1.0279511857
| 14> C 3.3426135923 -0.143272038 -0.0453043272
| 15> C 2.9062724396 0.4597161823 1.1513045234
| 16> C 1.5801646138 0.7377410078 1.3361171683
| 17> C 0.6215731838 0.4349166781 0.3499369564
| 18> C -0.7496648119 0.7102622633 0.5276126715
| 19> O 4.643723849 -0.458150801 -0.3144934942
| 20> C 5.6337352939 -0.1746678938 0.6560817575
| 21> C -3.6650559387 -0.580677355 0.380669054
| 22> O -3.7206029183 -0.7704387643 1.5759679666
| 23> O -4.010560626 -1.4985952199 -0.5080984575
| 24> H -4.5163073036 2.1769800528 0.4500445098
| 25> H -3.2789713363 1.7169699717 1.6128487235
| 26> H -2.8576004137 2.7560629621 0.2383876556
| 27> H -1.9493602622 -0.4379364009 -2.4033973202
| 28> H 0.4262878873 -0.9435601326 -2.7605511263
| 29> H 2.7737423178 -0.9100300208 -1.9394279038
| 30> H 3.6133317441 0.7054157922 1.9270050295
| 31> H 1.2514119582 1.1992625853 2.2554828922
| 32> H -1.0641143543 1.155673661 1.4585452804
| 33> H 5.6967646712 0.8980384769 0.8565176128
| 34> H 6.5676964227 -0.5187304647 0.2173524945
| 35> H 5.4445138598 -0.7172609231 1.5859367046
| 36> H -4.2918656502 -2.3396452846 -0.0980067167
| 37> *
| 38>
| 39>                          ****END OF INPUT****

CARTESIAN COORDINATES (ANGSTROEM)
---------------------------------
  C     -3.466764    1.916852    0.560899
  C     -3.145838    0.682455   -0.275999
  H     -3.603817    0.756761   -1.265231
  C     -1.661920    0.418075   -0.451612
  C     -1.221181   -0.192755   -1.644397
  C      0.098299   -0.477672   -1.843448
  C      1.060964   -0.170710   -0.856654
  C      2.426038   -0.448847   -1.027951
  C      3.342614   -0.143272   -0.045304
  C      2.906272    0.459716    1.151305
  C      1.580165    0.737741    1.336117
  C      0.621573    0.434917    0.349937
  C     -0.749665    0.710262    0.527613
  O      4.643724   -0.458151   -0.314493
  C      5.633735   -0.174668    0.656082
  C     -3.665056   -0.580677    0.380669
  O     -3.720603   -0.770439    1.575968
  O     -4.010561   -1.498595   -0.508098
  H     -4.516307    2.176980    0.450045
  H     -3.278971    1.716970    1.612849
  H     -2.857600    2.756063    0.238388
  H     -1.949360   -0.437936   -2.403397
  H      0.426288   -0.943560   -2.760551
  H      2.773742   -0.910030   -1.939428
  H      3.613332    0.705416    1.927005
  H      1.251412    1.199263    2.255483
  H     -1.064114    1.155674    1.458545
  H      5.696765    0.898038    0.856518
  H      6.567696   -0.518730    0.217352
  H      5.444514   -0.717261    1.585937
  H     -4.291866   -2.339645   -0.098007

 Total Charge           Charge          ....    0
 Multiplicity           Mult            ....    1
 Number of Electrons    NEL             ....  122
 Basis Dimension        Dim             ....  408

ORBITAL ENERGIES
----------------

  NO   OCC          E(Eh)            E(eV)
   0   2.0000     -19.005050      -517.1537
   1   2.0000     -18.987771      -516.6835
   2   2.0000     -18.933162      -515.1975
   3   2.0000     -10.161088      -276.4973
   4   2.0000     -10.098027      -274.7813
   5   2.0000     -10.089878      -274.5595
   6   2.0000     -10.059034      -273.7202
   7   2.0000     -10.047387      -273.4033
   8   2.0000     -10.045675      -273.3567
   9   2.0000     -10.042177      -273.2615
  10   2.0000     -10.041410      -273.2406
  11   2.0000     -10.040441      -273.2143
  12   2.0000     -10.035542      -273.0810
  13   2.0000     -10.034685      -273.0577
  14   2.0000     -10.034499      -273.0526
  15   2.0000     -10.029520      -272.9171
  16   2.0000     -10.025911      -272.8189
  17   2.0000      -1.078523       -29.3481
  18   2.0000      -1.035034       -28.1647
  19   2.0000      -0.979423       -26.6515
  20   2.0000      -0.848881       -23.0992
  21   2.0000      -0.807892       -21.9839
  22   2.0000      -0.766302       -20.8521
  23   2.0000      -0.745325       -20.2813
  24   2.0000      -0.709141       -19.2967
  25   2.0000      -0.702346       -19.1118
  26   2.0000      -0.660086       -17.9619
  27   2.0000      -0.649581       -17.6760
  28   2.0000      -0.603948       -16.4343
  29   2.0000      -0.582789       -15.8585
  30   2.0000      -0.571523       -15.5519
  31   2.0000      -0.547825       -14.9071
  32   2.0000      -0.505356       -13.7514
  33   2.0000      -0.487475       -13.2649
  34   2.0000      -0.482454       -13.1282
  35   2.0000      -0.467594       -12.7239
  36   2.0000      -0.444417       -12.0932
  37   2.0000      -0.440982       -11.9997
  38   2.0000      -0.440234       -11.9794
  39   2.0000      -0.432020       -11.7558
  40   2.0000      -0.416723       -11.3396
  41   2.0000      -0.411187       -11.1890
  42   2.0000      -0.397171       -10.8076
  43   2.0000      -0.389514       -10.5992
  44   2.0000      -0.378842       -10.3088
  45   2.0000      -0.375721       -10.2239
  46   2.0000      -0.370902       -10.0928
  47   2.0000      -0.364281        -9.9126
  48   2.0000      -0.348563        -9.4849
  49   2.0000      -0.343625        -9.3505
  50   2.0000      -0.332371        -9.0443
  51   2.0000      -0.325503        -8.8574
  52   2.0000      -0.312551        -8.5050
  53   2.0000      -0.308443        -8.3932
  54   2.0000      -0.294202        -8.0056
  55   2.0000      -0.291783        -7.9398
  56   2.0000      -0.284371        -7.7381
  57   2.0000      -0.261204        -7.1077
  58   2.0000      -0.240737        -6.5508
  59   2.0000      -0.220900        -6.0110
  60   2.0000      -0.188892        -5.1400
  61   0.0000      -0.067402        -1.8341
  62   0.0000      -0.039045        -1.0625
  63   0.0000      -0.007354        -0.2001
  64   0.0000      -0.001360        -0.0370
  65   0.0000       0.055342         1.5059

MULLIKEN ATOMIC CHARGES
-----------------------
   0 C :   -0.524944
   1 C :   -0.095616
   2 H :    0.176021
   3 C :    0.180124
   4 C :   -0.219603
   5 C :   -0.297362
   6 C :    0.257696
   7 C :   -0.400549
   8 C :    0.340704
   9 C :   -0.286558
  10 C :   -0.271438
  11 C :    0.160461
  12 C :   -0.271392
  13 O :   -0.180996
  14 C :   -0.333340
  15 C :    0.323300
  16 O :   -0.398598
  17 O :   -0.331991
  18 H :    0.154906
  19 H :    0.178252
  20 H :    0.169442
  21 H :    0.151535
  22 H :    0.141209
  23 H :    0.154380
  24 H :    0.146936
  25 H :    0.143118
  26 H :    0.143381
  27 H :    0.152936
  28 H :    0.155741
  29 H :    0.153265
  30 H :    0.328978
Sum of atomic charges:    0.0000000

LOEWDIN ATOMIC CHARGES
----------------------
   0 C :   -0.382713
   1 C :   -0.146631
   2 H :    0.186104
   3 C :   -0.079013
   4 C :   -0.144792
   5 C :   -0.143989
   6 C :   -0.048300
   7 C :   -0.120240
   8 C :    0.190497
   9 C :   -0.160208
  10 C :   -0.129861
  11 C :   -0.063962
  12 C :   -0.118753
  13 O :   -0.682577
  14 C :   -0.055820
  15 C :    0.355138
  16 O :   -0.420622
  17 O :   -0.396875
  18 H :    0.159905
  19 H :    0.173333
  20 H :    0.162276
  21 H :    0.173959
  22 H :    0.171227
  23 H :    0.183890
  24 H :    0.176067
  25 H :    0.172313
  26 H :    0.179460
  27 H :    0.164208
  28 H :    0.180962
  29 H :    0.164487
  30 H :    0.300531

  Mayer bond orders larger than 0.100000
B(  0-C ,  1-C ) :   0.8649 B(  0-C , 18-H ) :   0.9695 B(  0-C , 19-H ) :   0.9628
B(  0-C , 20-H ) :   0.9892 B(  1-C ,  2-H ) :   0.9919 B(  1-C ,  3-C ) :   0.7914
B(  1-C , 15-C ) :   0.9552 B(  3-C ,  4-C ) :   1.2342 B(  3-C , 12-C ) :   1.5255
B(  4-C ,  5-C ) :   1.4919 B(  4-C , 21-H ) :   0.9406 B(  5-C ,  6-C ) :   1.1771
B(  5-C , 22-H ) :   0.9559 B(  6-C ,  7-C ) :   1.1442 B(  6-C , 11-C ) :   1.4746
B(  7-C ,  8-C ) :   1.5016 B(  7-C , 23-H ) :   0.9440 B(  8-C ,  9-C ) :   1.2413
B(  8-C , 13-O ) :   1.0536 B(  9-C , 10-C ) :   1.4705 B(  9-C , 24-H ) :   0.9184
B( 10-C , 11-C ) :   1.2289 B( 10-C , 25-H ) :   0.9536 B( 11-C , 12-C ) :   1.2029
B( 12-C , 26-H ) :   0.9454 B( 13-O , 14-C ) :   0.8519 B( 14-C , 27-H ) :   0.9639
B( 14-C , 28-H ) :   0.9679 B( 14-C , 29-H ) :   0.9642 B( 15-C , 16-O ) :   1.9345
B( 15-C , 17-O ) :   1.0374 B( 17-O , 30-H ) :   0.8601

Dispersion correction           -0.013068067
FINAL SINGLE POINT ENERGY      -767.445500694505

DIPOLE MOMENT
-------------

Method             : SCF
Type of density    : Electron Density
Multiplicity       :   1
Irrep              :   0
Energy             :  -767.4460839823311744 Eh
Relativity type    :
Basis              : AO
                                X                 Y                 Z
Electronic contribution:     -3.399523514      -5.029400636      -2.195817061
Nuclear contribution   :      3.905573454       5.117667712       2.014629300
                        -----------------------------------------
Total Dipole Moment    :      0.506049940       0.088267076      -0.181187761
                        -----------------------------------------
Magnitude (a.u.)       :      0.544707833
Magnitude (Debye)      :      1.384537281

Rotational constants in cm-1:             0.043268             0.007111             0.006708
Rotational constants in MHz :          1297.147355           213.172085           201.110716

                             ****ORCA TERMINATED NORMALLY****
TOTAL RUN TIME: 0 days 0 hours 1 minutes 25 seconds 998 msec
