                         Program Version 6.0.0  -   RELEASE  -
|  1> ! r2scan-3c def2/J RI DEFGRID2 scfconv6 printgap
|  2> %output
|  3>     printlevel normal
|  4> end
|  5> %cpcm
|  6>     smd true
|  7>     smdsolvent "water"
|  8> end
|  9> * xyz 0 1
| 10> C -3.4667636222 1.9168520392 0.5608985979
| 11> C -3.1458375554 0.6824548071 -0.2759989135
| 12> H -3.6038170758 0.7567606049 -1.2652307636
| 13> C -1.6619198947 0.4180752594 -0.4516116197
| 14> C -1.2211813562 -0.1927554069 -1.6443967536
| 15> C 0.0982990074 -0.477671692 -1.8434484384
| 16> C 1.0609639003 -0.1707103498 -0.8566537912
| 17> C 2.4260383198 -0.4488468697 -1.0279511857
| 18> C 3.3426135923 -0.143272038 -0.0453043272
| 19> C 2.9062724396 0.4597161823 1.1513045234
| 20> C 1.5801646138 0.7377410078 1.3361171683
| 21> C 0.6215731838 0.4349166781 0.3499369564
| 22> C -0.7496648119 0.7102622633 0.5276126715
| 23> O 4.643723849 -0.458150801 -0.3144934942
| 24> C 5.6337352939 -0.1746678938 0.6560817575
| 25> C -3.6650559387 -0.580677355 0.380669054
| 26> O -3.7206029183 -0.7704387643 1.5759679666
| 27> O -4.010560626 -1.4985952199 -0.5080984575
| 28> H -4.5163073036 2.1769800528 0.4500445098
| 29> H -3.2789713363 1.7169699717 1.6128487235
| 30> H -2.8576004137 2.7560629621 0.2383876556
| 31> H -1.9493602622 -0.4379364009 -2.4033973202
| 32> H 0.4262878873 -0.9435601326 -2.7605511263
| 33> H 2.7737423178 -0.9100300208 -1.9394279038
| 34> H 3.6133317441 0.7054157922 1.9270050295
| 35> H 1.2514119582 1.1992625853 2.2554828922
| 36> H -1.0641143543 1.155673661 1.4585452804
| 37> H 5.6967646712 0.8980384769 0.8565176128
| 38> H 6.5676964227 -0.5187304647 0.2173524945
| 39> H 5.4445138598 -0.7172609231 1.5859367046
| 40> H -4.2918656502 -2.3396452846 -0.0980067167
| 41> *
| 42>
| 43>                          ****END OF INPUT****

CARTESIAN COORDINATES (ANGSTROEM)
---------------------------------
  C     -3.466764    1.916852    0.560899
  C     -3.145838    0.682455   -0.275999
  H     -3.603817    0.756761   -1.265231
  C     -1.661920    0.418075   -0.451612
  C     -1.221181   -0.192755   -1.644397
  C      0.098299   -0.477672   -1.843448
  C      1.060964   -0.170710   -0.856654
  C      2.426038   -0.448847   -1.027951
  C      3.342614   -0.143272   -0.045304
  C      2.906272    0.459716    1.151305
  C      1.580165    0.737741    1.336117
  C      0.621573    0.434917    0.349937
  C     -0.749665    0.710262    0.527613
  O      4.643724   -0.458151   -0.314493
  C      5.633735   -0.174668    0.656082
  C     -3.665056   -0.580677    0.380669
  O     -3.720603   -0.770439    1.575968
  O     -4.010561   -1.498595   -0.508098
  H     -4.516307    2.176980    0.450045
  H     -3.278971    1.716970    1.612849
  H     -2.857600    2.756063    0.238388
  H     -1.949360   -0.437936   -2.403397
  H      0.426288   -0.943560   -2.760551
  H      2.773742   -0.910030   -1.939428
  H      3.613332    0.705416    1.927005
  H      1.251412    1.199263    2.255483
  H     -1.064114    1.155674    1.458545
  H      5.696765    0.898038    0.856518
  H      6.567696   -0.518730    0.217352
  H      5.444514   -0.717261    1.585937
  H     -4.291866   -2.339645   -0.098007

 Total Charge           Charge          ....    0
 Multiplicity           Mult            ....    1
 Number of Electrons    NEL             ....  122
 Basis Dimension        Dim             ....  408

ORBITAL ENERGIES
----------------

  NO   OCC          E(Eh)            E(eV)
   0   2.0000     -19.003664      -517.1160
   1   2.0000     -18.988726      -516.7095
   2   2.0000     -18.947120      -515.5774
   3   2.0000     -10.170263      -276.7469
   4   2.0000     -10.099506      -274.8215
   5   2.0000     -10.073247      -274.1070
   6   2.0000     -10.055298      -273.6186
   7   2.0000     -10.048898      -273.4444
   8   2.0000     -10.048464      -273.4326
   9   2.0000     -10.044443      -273.3232
  10   2.0000     -10.039928      -273.2003
  11   2.0000     -10.037991      -273.1476
  12   2.0000     -10.035306      -273.0746
  13   2.0000     -10.035261      -273.0733
  14   2.0000     -10.034576      -273.0547
  15   2.0000     -10.030826      -272.9526
  16   2.0000     -10.019653      -272.6486
  17   2.0000      -1.081271       -29.4229
  18   2.0000      -1.035083       -28.1660
  19   2.0000      -0.989707       -26.9313
  20   2.0000      -0.851331       -23.1659
  21   2.0000      -0.808383       -21.9972
  22   2.0000      -0.765643       -20.8342
  23   2.0000      -0.745751       -20.2929
  24   2.0000      -0.708556       -19.2808
  25   2.0000      -0.699922       -19.0459
  26   2.0000      -0.654678       -17.8147
  27   2.0000      -0.645311       -17.5598
  28   2.0000      -0.602911       -16.4061
  29   2.0000      -0.579975       -15.7819
  30   2.0000      -0.571064       -15.5394
  31   2.0000      -0.544558       -14.8182
  32   2.0000      -0.500936       -13.6312
  33   2.0000      -0.486408       -13.2358
  34   2.0000      -0.482048       -13.1172
  35   2.0000      -0.469588       -12.7781
  36   2.0000      -0.454727       -12.3738
  37   2.0000      -0.438678       -11.9370
  38   2.0000      -0.433786       -11.8039
  39   2.0000      -0.433034       -11.7834
  40   2.0000      -0.413590       -11.2544
  41   2.0000      -0.408333       -11.1113
  42   2.0000      -0.394782       -10.7426
  43   2.0000      -0.386942       -10.5292
  44   2.0000      -0.380884       -10.3644
  45   2.0000      -0.373891       -10.1741
  46   2.0000      -0.372163       -10.1271
  47   2.0000      -0.359864        -9.7924
  48   2.0000      -0.346337        -9.4243
  49   2.0000      -0.341318        -9.2877
  50   2.0000      -0.328796        -8.9470
  51   2.0000      -0.324265        -8.8237
  52   2.0000      -0.309629        -8.4254
  53   2.0000      -0.307436        -8.3658
  54   2.0000      -0.301907        -8.2153
  55   2.0000      -0.292303        -7.9540
  56   2.0000      -0.286506        -7.7962
  57   2.0000      -0.267345        -7.2748
  58   2.0000      -0.251868        -6.8537
  59   2.0000      -0.224215        -6.1012
  60   2.0000      -0.192416        -5.2359
  61   0.0000      -0.070057        -1.9063
  62   0.0000      -0.043809        -1.1921
  63   0.0000      -0.012496        -0.3400
  64   0.0000      -0.005502        -0.1497
  65   0.0000       0.065106         1.7716

MULLIKEN ATOMIC CHARGES
-----------------------
   0 C :   -0.555533
   1 C :   -0.057549
   2 H :    0.204022
   3 C :    0.158954
   4 C :   -0.245043
   5 C :   -0.322296
   6 C :    0.206916
   7 C :   -0.426144
   8 C :    0.337931
   9 C :   -0.281847
  10 C :   -0.301815
  11 C :    0.101154
  12 C :   -0.278494
  13 O :   -0.222817
  14 C :   -0.341672
  15 C :    0.341814
  16 O :   -0.481124
  17 O :   -0.355066
  18 H :    0.177279
  19 H :    0.174791
  20 H :    0.182443
  21 H :    0.181336
  22 H :    0.175033
  23 H :    0.183848
  24 H :    0.185409
  25 H :    0.178586
  26 H :    0.181653
  27 H :    0.172470
  28 H :    0.173688
  29 H :    0.172618
  30 H :    0.379457
Sum of atomic charges:   -0.0000000

LOEWDIN ATOMIC CHARGES
----------------------
   0 C :   -0.385279
   1 C :   -0.142681
   2 H :    0.198422
   3 C :   -0.084582
   4 C :   -0.151304
   5 C :   -0.151524
   6 C :   -0.062900
   7 C :   -0.134291
   8 C :    0.181511
   9 C :   -0.156152
  10 C :   -0.135285
  11 C :   -0.078441
  12 C :   -0.128935
  13 O :   -0.707519
  14 C :   -0.051318
  15 C :    0.365369
  16 O :   -0.481200
  17 O :   -0.385388
  18 H :    0.166485
  19 H :    0.170864
  20 H :    0.167571
  21 H :    0.184839
  22 H :    0.183485
  23 H :    0.193276
  24 H :    0.191522
  25 H :    0.185402
  26 H :    0.190086
  27 H :    0.174287
  28 H :    0.187662
  29 H :    0.174483
  30 H :    0.321537

  Mayer bond orders larger than 0.100000
B(  0-C ,  1-C ) :   0.8439 B(  0-C , 18-H ) :   0.9685 B(  0-C , 19-H ) :   0.9621
B(  0-C , 20-H ) :   0.9842 B(  1-C ,  2-H ) :   0.9769 B(  1-C ,  3-C ) :   0.7982
B(  1-C , 15-C ) :   0.9599 B(  3-C ,  4-C ) :   1.2119 B(  3-C , 12-C ) :   1.4754
B(  4-C ,  5-C ) :   1.4615 B(  4-C , 21-H ) :   0.9576 B(  5-C ,  6-C ) :   1.1688
B(  5-C , 22-H ) :   0.9723 B(  6-C ,  7-C ) :   1.1783 B(  6-C , 11-C ) :   1.3865
B(  7-C ,  8-C ) :   1.4427 B(  7-C , 23-H ) :   0.9503 B(  8-C ,  9-C ) :   1.2255
B(  8-C , 13-O ) :   1.0383 B(  9-C , 10-C ) :   1.4460 B(  9-C , 24-H ) :   0.9303
B( 10-C , 11-C ) :   1.2190 B( 10-C , 25-H ) :   0.9710 B( 11-C , 12-C ) :   1.2375
B( 12-C , 26-H ) :   0.9424 B( 13-O , 14-C ) :   0.8435 B( 14-C , 27-H ) :   0.9560
B( 14-C , 28-H ) :   0.9603 B( 14-C , 29-H ) :   0.9563 B( 15-C , 16-O ) :   1.8671
B( 15-C , 17-O ) :   1.0724 B( 17-O , 30-H ) :   0.8355

Dispersion correction           -0.013068067
FINAL SINGLE POINT ENERGY      -767.460851977040

DIPOLE MOMENT
-------------

Method             : SCF
Type of density    : Electron Density
Multiplicity       :   1
Irrep              :   0
Energy             :  -767.4614352648666227 Eh
Relativity type    :
Basis              : AO
                                X                 Y                 Z
Electronic contribution:     -3.359317457      -4.929968959      -2.279947745
Nuclear contribution   :      3.905573454       5.117667712       2.014629300
                        -----------------------------------------
Total Dipole Moment    :      0.546255997       0.187698753      -0.265318445
                        -----------------------------------------
Magnitude (a.u.)       :      0.635625923
Magnitude (Debye)      :      1.615632700

Rotational constants in cm-1:             0.043268             0.007111             0.006708
Rotational constants in MHz :          1297.147355           213.172085           201.110716

                             ****ORCA TERMINATED NORMALLY****
TOTAL RUN TIME: 0 days 0 hours 1 minutes 45 seconds 770 msec
