                         Program Version 6.0.0  -   RELEASE  -
|  1> ! pbe def2-sv(p) def2/J RI DEFGRID1 loosescf d4 GCP(DFT/SV(P)) printgap
|  2> %output
|  3>     printlevel normal
|  4> end
|  5> * xyz 0 1
|  6> C -3.6581665249 -0.6189846933 0.2317509515
|  7> C -2.4049489636 0.1296676409 -0.2028375547
|  8> C -1.1470595163 -0.4861569675 0.4076216684
|  9> C 0.1116748037 0.1565082469 -0.1128984516
| 10> O 0.2275707952 0.6922327881 -1.1948760598
| 11> O 1.1000368564 0.0602821031 0.77047387
| 12> C 2.3958516763 0.5703580398 0.4123365054
| 13> C 3.2309595332 -0.4985955277 -0.275622494
| 14> H -4.5412160793 -0.1575379423 -0.2013276375
| 15> H -3.6161796371 -1.6551523753 -0.0942825179
| 16> H -3.7555394083 -0.6011704337 1.314342489
| 17> H -2.4752484932 1.1760628379 0.1002811862
| 18> H -2.3125593238 0.1105793207 -1.2902539503
| 19> H -1.0931730479 -1.5457054267 0.1434900951
| 20> H -1.1499831297 -0.4133396143 1.4951271068
| 21> H 2.2606517986 1.4366930057 -0.2422271687
| 22> H 2.8437409976 0.8759337367 1.3584172319
| 23> H 2.7694124125 -0.7827508922 -1.2187124258
| 24> H 4.2237707307 -0.1078080819 -0.4730332363
| 25> H 3.3097923888 -1.3769078011 0.359204762
| 26> *
| 27>
| 28>                          ****END OF INPUT****

CARTESIAN COORDINATES (ANGSTROEM)
---------------------------------
  C     -3.658167   -0.618985    0.231751
  C     -2.404949    0.129668   -0.202838
  C     -1.147060   -0.486157    0.407622
  C      0.111675    0.156508   -0.112898
  O      0.227571    0.692233   -1.194876
  O      1.100037    0.060282    0.770474
  C      2.395852    0.570358    0.412337
  C      3.230960   -0.498596   -0.275622
  H     -4.541216   -0.157538   -0.201328
  H     -3.616180   -1.655152   -0.094283
  H     -3.755539   -0.601170    1.314342
  H     -2.475248    1.176063    0.100281
  H     -2.312559    0.110579   -1.290254
  H     -1.093173   -1.545705    0.143490
  H     -1.149983   -0.413340    1.495127
  H      2.260652    1.436693   -0.242227
  H      2.843741    0.875934    1.358417
  H      2.769412   -0.782751   -1.218712
  H      4.223771   -0.107808   -0.473033
  H      3.309792   -1.376908    0.359205

 Total Charge           Charge          ....    0
 Multiplicity           Mult            ....    1
 Number of Electrons    NEL             ....   64
 Basis Dimension        Dim             ....  136

ORBITAL ENERGIES
----------------

  NO   OCC          E(Eh)            E(eV)
   0   2.0000     -18.795737      -511.4580
   1   2.0000     -18.732001      -509.7237
   2   2.0000     -10.004873      -272.2464
   3   2.0000      -9.945302      -270.6254
   4   2.0000      -9.896988      -269.3107
   5   2.0000      -9.887029      -269.0397
   6   2.0000      -9.886906      -269.0364
   7   2.0000      -9.876713      -268.7590
   8   2.0000      -1.002565       -27.2812
   9   2.0000      -0.908635       -24.7252
  10   2.0000      -0.725204       -19.7338
  11   2.0000      -0.697002       -18.9664
  12   2.0000      -0.639048       -17.3894
  13   2.0000      -0.587895       -15.9974
  14   2.0000      -0.528587       -14.3836
  15   2.0000      -0.493473       -13.4281
  16   2.0000      -0.452571       -12.3151
  17   2.0000      -0.437499       -11.9050
  18   2.0000      -0.414085       -11.2678
  19   2.0000      -0.405575       -11.0363
  20   2.0000      -0.391225       -10.6458
  21   2.0000      -0.368061       -10.0155
  22   2.0000      -0.365812        -9.9543
  23   2.0000      -0.348785        -9.4909
  24   2.0000      -0.337996        -9.1973
  25   2.0000      -0.323183        -8.7942
  26   2.0000      -0.310431        -8.4473
  27   2.0000      -0.300280        -8.1710
  28   2.0000      -0.291257        -7.9255
  29   2.0000      -0.287125        -7.8131
  30   2.0000      -0.254823        -6.9341
  31   2.0000      -0.218413        -5.9433
  32   0.0000      -0.018146        -0.4938
  33   0.0000       0.039161         1.0656
  34   0.0000       0.052536         1.4296
  35   0.0000       0.078090         2.1249
  36   0.0000       0.082740         2.2515

MULLIKEN ATOMIC CHARGES
-----------------------
   0 C :   -0.253738
   1 C :   -0.207899
   2 C :   -0.169281
   3 C :    0.127538
   4 O :   -0.209930
   5 O :   -0.238840
   6 C :   -0.014306
   7 C :   -0.301897
   8 H :    0.105629
   9 H :    0.096418
  10 H :    0.096243
  11 H :    0.093994
  12 H :    0.106634
  13 H :    0.111131
  14 H :    0.100214
  15 H :    0.108807
  16 H :    0.100657
  17 H :    0.123873
  18 H :    0.111884
  19 H :    0.112870
Sum of atomic charges:   -0.0000000

LOEWDIN ATOMIC CHARGES
----------------------
   0 C :   -0.339555
   1 C :   -0.230166
   2 C :   -0.249954
   3 C :    0.039299
   4 O :   -0.169855
   5 O :   -0.070510
   6 C :   -0.113886
   7 C :   -0.355648
   8 H :    0.121114
   9 H :    0.116863
  10 H :    0.116398
  11 H :    0.119420
  12 H :    0.124135
  13 H :    0.141732
  14 H :    0.131345
  15 H :    0.119310
  16 H :    0.116407
  17 H :    0.129550
  18 H :    0.129944
  19 H :    0.124057

  Mayer bond orders larger than 0.100000
B(  0-C ,  1-C ) :   1.1562 B(  0-C ,  8-H ) :   0.9537 B(  0-C ,  9-H ) :   0.9542
B(  0-C , 10-H ) :   0.9528 B(  1-C ,  2-C ) :   1.1283 B(  1-C , 11-H ) :   0.9331
B(  1-C , 12-H ) :   0.9195 B(  2-C ,  3-C ) :   1.0183 B(  2-C , 13-H ) :   0.8896
B(  2-C , 14-H ) :   0.9074 B(  3-C ,  4-O ) :   2.0398 B(  3-C ,  5-O ) :   1.2182
B(  5-O ,  6-C ) :   0.9229 B(  6-C ,  7-C ) :   1.1737 B(  6-C , 15-H ) :   0.9120
B(  6-C , 16-H ) :   0.9372 B(  7-C , 17-H ) :   0.9472 B(  7-C , 18-H ) :   0.9447
B(  7-C , 19-H ) :   0.9495

Dispersion correction           -0.014557581
FINAL SINGLE POINT ENERGY      -385.458813767421

DIPOLE MOMENT
-------------

Method             : SCF
Type of density    : Electron Density
Multiplicity       :   1
Irrep              :   0
Energy             :  -385.5340040256671728 Eh
Relativity type    :
Basis              : AO
                                X                 Y                 Z
Electronic contribution:      3.570161807       2.567783569      -0.625642164
Nuclear contribution   :     -3.298169430      -2.841903771       1.167377765
                        -----------------------------------------
Total Dipole Moment    :      0.271992377      -0.274120202       0.541735601
                        -----------------------------------------
Magnitude (a.u.)       :      0.665281294
Magnitude (Debye)      :      1.691010662

Rotational constants in cm-1:             0.209287             0.028039             0.026730
Rotational constants in MHz :          6274.279622           840.595946           801.337774

                             ****ORCA TERMINATED NORMALLY****
TOTAL RUN TIME: 0 days 0 hours 0 minutes 10 seconds 531 msec
