                         Program Version 6.0.0  -   RELEASE  -
|  1> ! r2scan-3c def2/J RI DEFGRID2 scfconv6 printgap
|  2> %output
|  3>     printlevel normal
|  4> end
|  5> * xyz 0 1
|  6> C -3.2857629521 -0.8593839483 -0.3342253046
|  7> C -1.8827079859 -0.6243279235 0.2121993338
|  8> C -1.5026312703 0.8542768364 0.1679128352
|  9> C -0.1130616025 1.1053503399 0.7620186024
| 10> C 0.9530837522 0.4579974583 -0.0832113373
| 11> O 1.1064137832 0.6477285664 -1.2719320329
| 12> O 1.7121325079 -0.3590962425 0.6373533454
| 13> C 2.7864223882 -1.0586664822 0.0007336421
| 14> H -3.5380955148 -1.9158719079 -0.2962685321
| 15> H -4.0178542284 -0.308140231 0.2509103365
| 16> H -3.3509756296 -0.5267344269 -1.3675788697
| 17> H -1.828353235 -0.9812745525 1.2428650789
| 18> H -1.1621342484 -1.1977846583 -0.3768093046
| 19> H -2.2364918681 1.4350202873 0.7278814171
| 20> H -1.5084328318 1.2003278666 -0.8677241483
| 21> H -0.0421529808 0.7116324156 1.7751679636
| 22> H 0.0852823628 2.1782888418 0.7745138537
| 23> H 2.7340192395 -0.9134030032 -1.0788761355
| 24> H 2.6816432785 -2.111028957 0.2549692124
| 25> H 3.7247042529 -0.666107654 0.389429422
| 26> *
| 27>
| 28>                          ****END OF INPUT****

CARTESIAN COORDINATES (ANGSTROEM)
---------------------------------
  C     -3.285763   -0.859384   -0.334225
  C     -1.882708   -0.624328    0.212199
  C     -1.502631    0.854277    0.167913
  C     -0.113062    1.105350    0.762019
  C      0.953084    0.457997   -0.083211
  O      1.106414    0.647729   -1.271932
  O      1.712133   -0.359096    0.637353
  C      2.786422   -1.058666    0.000734
  H     -3.538096   -1.915872   -0.296269
  H     -4.017854   -0.308140    0.250910
  H     -3.350976   -0.526734   -1.367579
  H     -1.828353   -0.981275    1.242865
  H     -1.162134   -1.197785   -0.376809
  H     -2.236492    1.435020    0.727881
  H     -1.508433    1.200328   -0.867724
  H     -0.042153    0.711632    1.775168
  H      0.085282    2.178289    0.774514
  H      2.734019   -0.913403   -1.078876
  H      2.681643   -2.111029    0.254969
  H      3.724704   -0.666108    0.389429

 Total Charge           Charge          ....    0
 Multiplicity           Mult            ....    1
 Number of Electrons    NEL             ....   64
 Basis Dimension        Dim             ....  222

ORBITAL ENERGIES
----------------

  NO   OCC          E(Eh)            E(eV)
   0   2.0000     -18.999882      -517.0131
   1   2.0000     -18.928464      -515.0697
   2   2.0000     -10.153054      -276.2786
   3   2.0000     -10.084920      -274.4246
   4   2.0000     -10.041163      -273.2339
   5   2.0000     -10.032224      -272.9907
   6   2.0000     -10.027107      -272.8515
   7   2.0000     -10.016903      -272.5738
   8   2.0000      -1.072586       -29.1865
   9   2.0000      -0.976591       -26.5744
  10   2.0000      -0.777819       -21.1655
  11   2.0000      -0.726945       -19.7812
  12   2.0000      -0.687235       -18.7006
  13   2.0000      -0.614741       -16.7280
  14   2.0000      -0.557777       -15.1779
  15   2.0000      -0.526181       -14.3181
  16   2.0000      -0.473885       -12.8951
  17   2.0000      -0.455652       -12.3989
  18   2.0000      -0.445192       -12.1143
  19   2.0000      -0.426263       -11.5992
  20   2.0000      -0.411155       -11.1881
  21   2.0000      -0.396811       -10.7978
  22   2.0000      -0.386541       -10.5183
  23   2.0000      -0.356041        -9.6884
  24   2.0000      -0.348993        -9.4966
  25   2.0000      -0.336415        -9.1543
  26   2.0000      -0.318264        -8.6604
  27   2.0000      -0.306536        -8.3413
  28   2.0000      -0.299587        -8.1522
  29   2.0000      -0.295545        -8.0422
  30   2.0000      -0.272272        -7.4089
  31   2.0000      -0.238521        -6.4905
  32   0.0000      -0.015072        -0.4101
  33   0.0000       0.066569         1.8114
  34   0.0000       0.089998         2.4490
  35   0.0000       0.108017         2.9393
  36   0.0000       0.114771         3.1231

MULLIKEN ATOMIC CHARGES
-----------------------
   0 C :   -0.474957
   1 C :   -0.250409
   2 C :   -0.264544
   3 C :   -0.288982
   4 C :    0.361638
   5 O :   -0.430873
   6 O :   -0.188549
   7 C :   -0.307545
   8 H :    0.147013
   9 H :    0.140687
  10 H :    0.146142
  11 H :    0.140142
  12 H :    0.146947
  13 H :    0.144251
  14 H :    0.164974
  15 H :    0.160343
  16 H :    0.167380
  17 H :    0.189229
  18 H :    0.148398
  19 H :    0.148715
Sum of atomic charges:   -0.0000000

LOEWDIN ATOMIC CHARGES
----------------------
   0 C :   -0.421920
   1 C :   -0.309254
   2 C :   -0.287060
   3 C :   -0.228477
   4 C :    0.352795
   5 O :   -0.443316
   6 O :   -0.602560
   7 C :   -0.047280
   8 H :    0.150862
   9 H :    0.149697
  10 H :    0.152088
  11 H :    0.151476
  12 H :    0.157407
  13 H :    0.155870
  14 H :    0.169730
  15 H :    0.178000
  16 H :    0.181765
  17 H :    0.193002
  18 H :    0.174060
  19 H :    0.173113

  Mayer bond orders larger than 0.100000
B(  0-C ,  1-C ) :   0.9032 B(  0-C ,  8-H ) :   0.9741 B(  0-C ,  9-H ) :   0.9827
B(  0-C , 10-H ) :   0.9831 B(  1-C ,  2-C ) :   0.9240 B(  1-C , 11-H ) :   0.9703
B(  1-C , 12-H ) :   0.9586 B(  2-C ,  3-C ) :   0.8919 B(  2-C , 13-H ) :   0.9707
B(  2-C , 14-H ) :   0.9723 B(  3-C ,  4-C ) :   0.9502 B(  3-C , 15-H ) :   0.9974
B(  3-C , 16-H ) :   0.9431 B(  4-C ,  5-O ) :   1.8420 B(  4-C ,  6-O ) :   1.0492
B(  6-O ,  7-C ) :   0.8425 B(  7-C , 17-H ) :   0.9674 B(  7-C , 18-H ) :   0.9659
B(  7-C , 19-H ) :   0.9626

Dispersion correction           -0.005119174
FINAL SINGLE POINT ENERGY      -386.230091887637

DIPOLE MOMENT
-------------

Method             : SCF
Type of density    : Electron Density
Multiplicity       :   1
Irrep              :   0
Energy             :  -386.2370567946241522 Eh
Relativity type    :
Basis              : AO
                                X                 Y                 Z
Electronic contribution:      7.952248342       2.570954024      -0.661438104
Nuclear contribution   :     -7.894009440      -2.899417326       1.330743003
                        -----------------------------------------
Total Dipole Moment    :      0.058238902      -0.328463302       0.669304899
                        -----------------------------------------
Magnitude (a.u.)       :      0.747829498
Magnitude (Debye)      :      1.900831523

Rotational constants in cm-1:             0.125142             0.033508             0.031565
Rotational constants in MHz :          3751.674525          1004.554056           946.284442

                             ****ORCA TERMINATED NORMALLY****
TOTAL RUN TIME: 0 days 0 hours 0 minutes 25 seconds 980 msec
