                         Program Version 6.0.0  -   RELEASE  -
|  1> ! r2scan-3c def2/J RI DEFGRID2 scfconv6 printgap
|  2> %output
|  3>     printlevel normal
|  4> end
|  5> %cpcm
|  6>     smd true
|  7>     smdsolvent "water"
|  8> end
|  9> * xyz 0 1
| 10> C -3.2857629521 -0.8593839483 -0.3342253046
| 11> C -1.8827079859 -0.6243279235 0.2121993338
| 12> C -1.5026312703 0.8542768364 0.1679128352
| 13> C -0.1130616025 1.1053503399 0.7620186024
| 14> C 0.9530837522 0.4579974583 -0.0832113373
| 15> O 1.1064137832 0.6477285664 -1.2719320329
| 16> O 1.7121325079 -0.3590962425 0.6373533454
| 17> C 2.7864223882 -1.0586664822 0.0007336421
| 18> H -3.5380955148 -1.9158719079 -0.2962685321
| 19> H -4.0178542284 -0.308140231 0.2509103365
| 20> H -3.3509756296 -0.5267344269 -1.3675788697
| 21> H -1.828353235 -0.9812745525 1.2428650789
| 22> H -1.1621342484 -1.1977846583 -0.3768093046
| 23> H -2.2364918681 1.4350202873 0.7278814171
| 24> H -1.5084328318 1.2003278666 -0.8677241483
| 25> H -0.0421529808 0.7116324156 1.7751679636
| 26> H 0.0852823628 2.1782888418 0.7745138537
| 27> H 2.7340192395 -0.9134030032 -1.0788761355
| 28> H 2.6816432785 -2.111028957 0.2549692124
| 29> H 3.7247042529 -0.666107654 0.389429422
| 30> *
| 31>
| 32>                          ****END OF INPUT****

CARTESIAN COORDINATES (ANGSTROEM)
---------------------------------
  C     -3.285763   -0.859384   -0.334225
  C     -1.882708   -0.624328    0.212199
  C     -1.502631    0.854277    0.167913
  C     -0.113062    1.105350    0.762019
  C      0.953084    0.457997   -0.083211
  O      1.106414    0.647729   -1.271932
  O      1.712133   -0.359096    0.637353
  C      2.786422   -1.058666    0.000734
  H     -3.538096   -1.915872   -0.296269
  H     -4.017854   -0.308140    0.250910
  H     -3.350976   -0.526734   -1.367579
  H     -1.828353   -0.981275    1.242865
  H     -1.162134   -1.197785   -0.376809
  H     -2.236492    1.435020    0.727881
  H     -1.508433    1.200328   -0.867724
  H     -0.042153    0.711632    1.775168
  H      0.085282    2.178289    0.774514
  H      2.734019   -0.913403   -1.078876
  H      2.681643   -2.111029    0.254969
  H      3.724704   -0.666108    0.389429

 Total Charge           Charge          ....    0
 Multiplicity           Mult            ....    1
 Number of Electrons    NEL             ....   64
 Basis Dimension        Dim             ....  222

ORBITAL ENERGIES
----------------

  NO   OCC          E(Eh)            E(eV)
   0   2.0000     -19.005172      -517.1570
   1   2.0000     -18.943254      -515.4721
   2   2.0000     -10.162874      -276.5459
   3   2.0000     -10.074815      -274.1497
   4   2.0000     -10.035379      -273.0765
   5   2.0000     -10.025669      -272.8123
   6   2.0000     -10.019165      -272.6353
   7   2.0000     -10.008793      -272.3531
   8   2.0000      -1.079182       -29.3660
   9   2.0000      -0.989489       -26.9254
  10   2.0000      -0.772482       -21.0203
  11   2.0000      -0.722171       -19.6513
  12   2.0000      -0.681010       -18.5312
  13   2.0000      -0.608346       -16.5539
  14   2.0000      -0.551288       -15.0013
  15   2.0000      -0.524367       -14.2688
  16   2.0000      -0.474239       -12.9047
  17   2.0000      -0.457111       -12.4386
  18   2.0000      -0.450992       -12.2721
  19   2.0000      -0.424814       -11.5598
  20   2.0000      -0.403984       -10.9930
  21   2.0000      -0.390231       -10.6187
  22   2.0000      -0.384894       -10.4735
  23   2.0000      -0.356646        -9.7048
  24   2.0000      -0.342470        -9.3191
  25   2.0000      -0.330287        -8.9876
  26   2.0000      -0.319166        -8.6849
  27   2.0000      -0.301234        -8.1970
  28   2.0000      -0.291957        -7.9445
  29   2.0000      -0.288683        -7.8555
  30   2.0000      -0.279450        -7.6042
  31   2.0000      -0.253965        -6.9107
  32   0.0000      -0.022421        -0.6101
  33   0.0000       0.070768         1.9257
  34   0.0000       0.097319         2.6482
  35   0.0000       0.116619         3.1734
  36   0.0000       0.126071         3.4306

MULLIKEN ATOMIC CHARGES
-----------------------
   0 C :   -0.518106
   1 C :   -0.256066
   2 C :   -0.278543
   3 C :   -0.305845
   4 C :    0.394905
   5 O :   -0.513559
   6 O :   -0.207945
   7 C :   -0.321432
   8 H :    0.157860
   9 H :    0.154951
  10 H :    0.154508
  11 H :    0.154835
  12 H :    0.152268
  13 H :    0.164243
  14 H :    0.159974
  15 H :    0.175811
  16 H :    0.196143
  17 H :    0.184472
  18 H :    0.175356
  19 H :    0.176169
Sum of atomic charges:   -0.0000000

LOEWDIN ATOMIC CHARGES
----------------------
   0 C :   -0.430248
   1 C :   -0.310937
   2 C :   -0.287081
   3 C :   -0.226006
   4 C :    0.361736
   5 O :   -0.502910
   6 O :   -0.605252
   7 C :   -0.041517
   8 H :    0.153514
   9 H :    0.153544
  10 H :    0.153313
  11 H :    0.156270
  12 H :    0.157526
  13 H :    0.163461
  14 H :    0.165937
  15 H :    0.185304
  16 H :    0.191734
  17 H :    0.191792
  18 H :    0.185656
  19 H :    0.184165

  Mayer bond orders larger than 0.100000
B(  0-C ,  1-C ) :   0.8930 B(  0-C ,  8-H ) :   0.9711 B(  0-C ,  9-H ) :   0.9799
B(  0-C , 10-H ) :   0.9816 B(  1-C ,  2-C ) :   0.9153 B(  1-C , 11-H ) :   0.9683
B(  1-C , 12-H ) :   0.9583 B(  2-C ,  3-C ) :   0.8743 B(  2-C , 13-H ) :   0.9650
B(  2-C , 14-H ) :   0.9795 B(  3-C ,  4-C ) :   0.9523 B(  3-C , 15-H ) :   0.9871
B(  3-C , 16-H ) :   0.9372 B(  4-C ,  5-O ) :   1.7754 B(  4-C ,  6-O ) :   1.0726
B(  6-O ,  7-C ) :   0.8306 B(  7-C , 17-H ) :   0.9637 B(  7-C , 18-H ) :   0.9562
B(  7-C , 19-H ) :   0.9536

Dispersion correction           -0.005119174
FINAL SINGLE POINT ENERGY      -386.234239969941

DIPOLE MOMENT
-------------

Method             : SCF
Type of density    : Electron Density
Multiplicity       :   1
Irrep              :   0
Energy             :  -386.2412048769282933 Eh
Relativity type    :
Basis              : AO
                                X                 Y                 Z
Electronic contribution:      7.974032847       2.473251380      -0.311411919
Nuclear contribution   :     -7.894009440      -2.899417326       1.330743003
                        -----------------------------------------
Total Dipole Moment    :      0.080023406      -0.426165946       1.019331084
                        -----------------------------------------
Magnitude (a.u.)       :      1.107726057
Magnitude (Debye)      :      2.815615877

Rotational constants in cm-1:             0.125142             0.033508             0.031565
Rotational constants in MHz :          3751.674525          1004.554056           946.284442

                             ****ORCA TERMINATED NORMALLY****
TOTAL RUN TIME: 0 days 0 hours 0 minutes 34 seconds 78 msec
