                         Program Version 6.0.0  -   RELEASE  -
|  1> ! r2scan-3c def2/J RI DEFGRID2 scfconv6 printgap
|  2> %output
|  3>     printlevel normal
|  4> end
|  5> * xyz 0 1
|  6> C -2.5798088871 -0.5370280373 1.0905338408
|  7> C -2.0946463148 -0.8195930079 -0.3260988828
|  8> C -1.3700870032 0.3900241708 -0.9303064215
|  9> C -0.1030636049 0.6976223736 -0.1740573846
| 10> O 0.1100045846 1.7274126813 0.4343585645
| 11> O 0.766510083 -0.2983497368 -0.2533310148
| 12> C 2.0333769377 -0.1675769855 0.4119149222
| 13> C 3.0651134718 -0.9762206744 -0.3526897266
| 14> H -3.0804160234 -1.4093607295 1.5020468314
| 15> H -1.7444266949 -0.279745065 1.7394617543
| 16> H -3.2773573017 0.2972281663 1.0954950222
| 17> H -2.9473710426 -1.0648248213 -0.9599262715
| 18> H -1.4143186117 -1.6722399677 -0.3219643231
| 19> H -2.0069759903 1.273871543 -0.8992683837
| 20> H -1.0985290768 0.1701855736 -1.9631908645
| 21> H 2.2951474532 0.8946105285 0.4560293126
| 22> H 1.9145416553 -0.5411597283 1.4338969833
| 23> H 4.0214041961 -0.9093905867 0.1554905725
| 24> H 2.7568261209 -2.0162091442 -0.4032128871
| 25> H 3.1698435103 -0.5921008533 -1.3633830044
| 26> *
| 27>
| 28>                          ****END OF INPUT****

CARTESIAN COORDINATES (ANGSTROEM)
---------------------------------
  C     -2.579809   -0.537028    1.090534
  C     -2.094646   -0.819593   -0.326099
  C     -1.370087    0.390024   -0.930306
  C     -0.103064    0.697622   -0.174057
  O      0.110005    1.727413    0.434359
  O      0.766510   -0.298350   -0.253331
  C      2.033377   -0.167577    0.411915
  C      3.065113   -0.976221   -0.352690
  H     -3.080416   -1.409361    1.502047
  H     -1.744427   -0.279745    1.739462
  H     -3.277357    0.297228    1.095495
  H     -2.947371   -1.064825   -0.959926
  H     -1.414319   -1.672240   -0.321964
  H     -2.006976    1.273872   -0.899268
  H     -1.098529    0.170186   -1.963191
  H      2.295147    0.894611    0.456029
  H      1.914542   -0.541160    1.433897
  H      4.021404   -0.909391    0.155491
  H      2.756826   -2.016209   -0.403213
  H      3.169844   -0.592101   -1.363383

 Total Charge           Charge          ....    0
 Multiplicity           Mult            ....    1
 Number of Electrons    NEL             ....   64
 Basis Dimension        Dim             ....  222

ORBITAL ENERGIES
----------------

  NO   OCC          E(Eh)            E(eV)
   0   2.0000     -18.996395      -516.9182
   1   2.0000     -18.925819      -514.9977
   2   2.0000     -10.150466      -276.2082
   3   2.0000     -10.091210      -274.5958
   4   2.0000     -10.040396      -273.2131
   5   2.0000     -10.036573      -273.1090
   6   2.0000     -10.032362      -272.9944
   7   2.0000     -10.019525      -272.6451
   8   2.0000      -1.071417       -29.1547
   9   2.0000      -0.973150       -26.4807
  10   2.0000      -0.776044       -21.1172
  11   2.0000      -0.741489       -20.1769
  12   2.0000      -0.677619       -18.4389
  13   2.0000      -0.617126       -16.7928
  14   2.0000      -0.569463       -15.4959
  15   2.0000      -0.532680       -14.4950
  16   2.0000      -0.473609       -12.8876
  17   2.0000      -0.447932       -12.1889
  18   2.0000      -0.441412       -12.0114
  19   2.0000      -0.424855       -11.5609
  20   2.0000      -0.410635       -11.1739
  21   2.0000      -0.383273       -10.4294
  22   2.0000      -0.375122       -10.2076
  23   2.0000      -0.370403       -10.0792
  24   2.0000      -0.355461        -9.6726
  25   2.0000      -0.337707        -9.1895
  26   2.0000      -0.324579        -8.8322
  27   2.0000      -0.312331        -8.4990
  28   2.0000      -0.309572        -8.4239
  29   2.0000      -0.307898        -8.3783
  30   2.0000      -0.270029        -7.3479
  31   2.0000      -0.230612        -6.2753
  32   0.0000      -0.014124        -0.3843
  33   0.0000       0.072164         1.9637
  34   0.0000       0.094477         2.5708
  35   0.0000       0.114894         3.1264
  36   0.0000       0.118753         3.2314

MULLIKEN ATOMIC CHARGES
-----------------------
   0 C :   -0.480315
   1 C :   -0.230424
   2 C :   -0.314798
   3 C :    0.359329
   4 O :   -0.424861
   5 O :   -0.166951
   6 C :   -0.149653
   7 C :   -0.442915
   8 H :    0.147195
   9 H :    0.155403
  10 H :    0.149155
  11 H :    0.145796
  12 H :    0.152270
  13 H :    0.168746
  14 H :    0.158095
  15 H :    0.177819
  16 H :    0.144995
  17 H :    0.146828
  18 H :    0.151779
  19 H :    0.152507
Sum of atomic charges:   -0.0000000

LOEWDIN ATOMIC CHARGES
----------------------
   0 C :   -0.414983
   1 C :   -0.293319
   2 C :   -0.230866
   3 C :    0.351770
   4 O :   -0.432356
   5 O :   -0.601963
   6 C :    0.033009
   7 C :   -0.386896
   8 H :    0.151595
   9 H :    0.156432
  10 H :    0.153387
  11 H :    0.153128
  12 H :    0.163469
  13 H :    0.177255
  14 H :    0.178973
  15 H :    0.190657
  16 H :    0.174191
  17 H :    0.159360
  18 H :    0.158434
  19 H :    0.158723

  Mayer bond orders larger than 0.100000
B(  0-C ,  1-C ) :   0.9137 B(  0-C ,  8-H ) :   0.9705 B(  0-C ,  9-H ) :   0.9705
B(  0-C , 10-H ) :   0.9780 B(  1-C ,  2-C ) :   0.8837 B(  1-C , 11-H ) :   0.9641
B(  1-C , 12-H ) :   0.9738 B(  2-C ,  3-C ) :   0.9599 B(  2-C , 13-H ) :   1.0035
B(  2-C , 14-H ) :   0.9458 B(  3-C ,  4-O ) :   1.8450 B(  3-C ,  5-O ) :   1.0522
B(  5-O ,  6-C ) :   0.7862 B(  6-C ,  7-C ) :   0.9489 B(  6-C , 15-H ) :   0.9654
B(  6-C , 16-H ) :   0.9451 B(  7-C , 17-H ) :   0.9677 B(  7-C , 18-H ) :   0.9690
B(  7-C , 19-H ) :   0.9747

Dispersion correction           -0.005093921
FINAL SINGLE POINT ENERGY      -386.234975489314

DIPOLE MOMENT
-------------

Method             : SCF
Type of density    : Electron Density
Multiplicity       :   1
Irrep              :   0
Energy             :  -386.2415922787470777 Eh
Relativity type    :
Basis              : AO
                                X                 Y                 Z
Electronic contribution:      1.487994091       4.618319805      -0.742059358
Nuclear contribution   :     -1.311348845      -5.466273370       0.445006209
                        -----------------------------------------
Total Dipole Moment    :      0.176645246      -0.847953565      -0.297053149
                        -----------------------------------------
Magnitude (a.u.)       :      0.915679728
Magnitude (Debye)      :      2.327472901

Rotational constants in cm-1:             0.117858             0.036597             0.033312
Rotational constants in MHz :          3533.295363          1097.151384           998.672650

                             ****ORCA TERMINATED NORMALLY****
TOTAL RUN TIME: 0 days 0 hours 0 minutes 30 seconds 699 msec
