                         Program Version 6.0.0  -   RELEASE  -
|  1> ! r2scan-3c def2/J RI DEFGRID2 scfconv6 printgap
|  2> %output
|  3>     printlevel normal
|  4> end
|  5> %cpcm
|  6>     smd true
|  7>     smdsolvent "water"
|  8> end
|  9> * xyz 0 1
| 10> C -2.5798088871 -0.5370280373 1.0905338408
| 11> C -2.0946463148 -0.8195930079 -0.3260988828
| 12> C -1.3700870032 0.3900241708 -0.9303064215
| 13> C -0.1030636049 0.6976223736 -0.1740573846
| 14> O 0.1100045846 1.7274126813 0.4343585645
| 15> O 0.766510083 -0.2983497368 -0.2533310148
| 16> C 2.0333769377 -0.1675769855 0.4119149222
| 17> C 3.0651134718 -0.9762206744 -0.3526897266
| 18> H -3.0804160234 -1.4093607295 1.5020468314
| 19> H -1.7444266949 -0.279745065 1.7394617543
| 20> H -3.2773573017 0.2972281663 1.0954950222
| 21> H -2.9473710426 -1.0648248213 -0.9599262715
| 22> H -1.4143186117 -1.6722399677 -0.3219643231
| 23> H -2.0069759903 1.273871543 -0.8992683837
| 24> H -1.0985290768 0.1701855736 -1.9631908645
| 25> H 2.2951474532 0.8946105285 0.4560293126
| 26> H 1.9145416553 -0.5411597283 1.4338969833
| 27> H 4.0214041961 -0.9093905867 0.1554905725
| 28> H 2.7568261209 -2.0162091442 -0.4032128871
| 29> H 3.1698435103 -0.5921008533 -1.3633830044
| 30> *
| 31>
| 32>                          ****END OF INPUT****

CARTESIAN COORDINATES (ANGSTROEM)
---------------------------------
  C     -2.579809   -0.537028    1.090534
  C     -2.094646   -0.819593   -0.326099
  C     -1.370087    0.390024   -0.930306
  C     -0.103064    0.697622   -0.174057
  O      0.110005    1.727413    0.434359
  O      0.766510   -0.298350   -0.253331
  C      2.033377   -0.167577    0.411915
  C      3.065113   -0.976221   -0.352690
  H     -3.080416   -1.409361    1.502047
  H     -1.744427   -0.279745    1.739462
  H     -3.277357    0.297228    1.095495
  H     -2.947371   -1.064825   -0.959926
  H     -1.414319   -1.672240   -0.321964
  H     -2.006976    1.273872   -0.899268
  H     -1.098529    0.170186   -1.963191
  H      2.295147    0.894611    0.456029
  H      1.914542   -0.541160    1.433897
  H      4.021404   -0.909391    0.155491
  H      2.756826   -2.016209   -0.403213
  H      3.169844   -0.592101   -1.363383

 Total Charge           Charge          ....    0
 Multiplicity           Mult            ....    1
 Number of Electrons    NEL             ....   64
 Basis Dimension        Dim             ....  222

ORBITAL ENERGIES
----------------

  NO   OCC          E(Eh)            E(eV)
   0   2.0000     -19.002083      -517.0730
   1   2.0000     -18.942955      -515.4640
   2   2.0000     -10.162079      -276.5242
   3   2.0000     -10.083312      -274.3809
   4   2.0000     -10.035337      -273.0754
   5   2.0000     -10.028709      -272.8950
   6   2.0000     -10.018612      -272.6203
   7   2.0000     -10.011719      -272.4327
   8   2.0000      -1.079023       -29.3617
   9   2.0000      -0.988020       -26.8854
  10   2.0000      -0.771393       -20.9907
  11   2.0000      -0.733342       -19.9552
  12   2.0000      -0.671921       -18.2839
  13   2.0000      -0.610445       -16.6111
  14   2.0000      -0.563475       -15.3329
  15   2.0000      -0.530806       -14.4440
  16   2.0000      -0.472193       -12.8490
  17   2.0000      -0.454780       -12.3752
  18   2.0000      -0.445699       -12.1281
  19   2.0000      -0.421495       -11.4695
  20   2.0000      -0.406396       -11.0586
  21   2.0000      -0.377604       -10.2751
  22   2.0000      -0.371364       -10.1053
  23   2.0000      -0.363264        -9.8849
  24   2.0000      -0.350292        -9.5319
  25   2.0000      -0.332356        -9.0439
  26   2.0000      -0.318459        -8.6657
  27   2.0000      -0.310455        -8.4479
  28   2.0000      -0.306236        -8.3331
  29   2.0000      -0.302384        -8.2283
  30   2.0000      -0.275682        -7.5017
  31   2.0000      -0.247360        -6.7310
  32   0.0000      -0.023118        -0.6291
  33   0.0000       0.076421         2.0795
  34   0.0000       0.103274         2.8102
  35   0.0000       0.124106         3.3771
  36   0.0000       0.126458         3.4411

MULLIKEN ATOMIC CHARGES
-----------------------
   0 C :   -0.527696
   1 C :   -0.222616
   2 C :   -0.335173
   3 C :    0.398568
   4 O :   -0.514455
   5 O :   -0.181832
   6 C :   -0.145350
   7 C :   -0.488234
   8 H :    0.161776
   9 H :    0.161411
  10 H :    0.163186
  11 H :    0.163515
  12 H :    0.156111
  13 H :    0.178095
  14 H :    0.187306
  15 H :    0.175374
  16 H :    0.171857
  17 H :    0.168271
  18 H :    0.164549
  19 H :    0.165336
Sum of atomic charges:    0.0000000

LOEWDIN ATOMIC CHARGES
----------------------
   0 C :   -0.423132
   1 C :   -0.289714
   2 C :   -0.228934
   3 C :    0.361012
   4 O :   -0.496034
   5 O :   -0.601532
   6 C :    0.036912
   7 C :   -0.390047
   8 H :    0.156403
   9 H :    0.156037
  10 H :    0.156137
  11 H :    0.160269
  12 H :    0.164623
  13 H :    0.181106
  14 H :    0.190439
  15 H :    0.190561
  16 H :    0.184067
  17 H :    0.167950
  18 H :    0.162116
  19 H :    0.161759

  Mayer bond orders larger than 0.100000
B(  0-C ,  1-C ) :   0.8976 B(  0-C ,  8-H ) :   0.9663 B(  0-C ,  9-H ) :   0.9695
B(  0-C , 10-H ) :   0.9771 B(  1-C ,  2-C ) :   0.8756 B(  1-C , 11-H ) :   0.9609
B(  1-C , 12-H ) :   0.9728 B(  2-C ,  3-C ) :   0.9594 B(  2-C , 13-H ) :   0.9985
B(  2-C , 14-H ) :   0.9367 B(  3-C ,  4-O ) :   1.7695 B(  3-C ,  5-O ) :   1.0834
B(  5-O ,  6-C ) :   0.7740 B(  6-C ,  7-C ) :   0.9456 B(  6-C , 15-H ) :   0.9608
B(  6-C , 16-H ) :   0.9364 B(  7-C , 17-H ) :   0.9614 B(  7-C , 18-H ) :   0.9661
B(  7-C , 19-H ) :   0.9729

Dispersion correction           -0.005093921
FINAL SINGLE POINT ENERGY      -386.240478289948

DIPOLE MOMENT
-------------

Method             : SCF
Type of density    : Electron Density
Multiplicity       :   1
Irrep              :   0
Energy             :  -386.2470950793809834 Eh
Relativity type    :
Basis              : AO
                                X                 Y                 Z
Electronic contribution:      1.513857970       4.279456239      -0.889622649
Nuclear contribution   :     -1.311348845      -5.466273370       0.445006209
                        -----------------------------------------
Total Dipole Moment    :      0.202509125      -1.186817131      -0.444616440
                        -----------------------------------------
Magnitude (a.u.)       :      1.283444049
Magnitude (Debye)      :      3.262255516

Rotational constants in cm-1:             0.117858             0.036597             0.033312
Rotational constants in MHz :          3533.295363          1097.151384           998.672650

                             ****ORCA TERMINATED NORMALLY****
TOTAL RUN TIME: 0 days 0 hours 0 minutes 37 seconds 451 msec
