                         Program Version 6.0.0  -   RELEASE  -
|  1> ! r2scan-3c def2/J RI DEFGRID2 scfconv6 printgap
|  2> %output
|  3>     printlevel normal
|  4> end
|  5> * xyz 0 1
|  6> C -3.3477957285 -0.9102462919 0.3833586428
|  7> C -2.8142043915 0.486847257 0.0858477789
|  8> C -1.4150498649 0.4741888032 -0.5281971251
|  9> C -0.351176916 -0.0607872249 0.4285609496
| 10> C 1.0430731367 0.1862663574 -0.0830151882
| 11> O 1.3599451203 1.0259074242 -0.898230262
| 12> O 1.920450928 -0.6359944461 0.48793272
| 13> C 3.295997993 -0.4921895665 0.1232681824
| 14> H -4.3764071242 -0.8524016056 0.7303780657
| 15> H -3.3231834347 -1.5242745121 -0.5138649967
| 16> H -2.7577585662 -1.3986380424 1.1537205776
| 17> H -3.4898837768 0.9828676054 -0.6134698066
| 18> H -2.8002624963 1.0751995515 1.005375816
| 19> H -1.1347874057 1.4897077752 -0.8162146683
| 20> H -1.419500928 -0.1318759719 -1.4363024852
| 21> H -0.4612398467 -1.1291264108 0.6099527788
| 22> H -0.4292850681 0.451390787 1.391361768
| 23> H 3.817338965 -1.3024509832 0.6227538044
| 24> H 3.6694549803 0.4771066903 0.4552821441
| 25> H 3.4039782737 -0.5622003747 -0.9597165708
| 26> *
| 27>
| 28>                          ****END OF INPUT****

CARTESIAN COORDINATES (ANGSTROEM)
---------------------------------
  C     -3.347796   -0.910246    0.383359
  C     -2.814204    0.486847    0.085848
  C     -1.415050    0.474189   -0.528197
  C     -0.351177   -0.060787    0.428561
  C      1.043073    0.186266   -0.083015
  O      1.359945    1.025907   -0.898230
  O      1.920451   -0.635994    0.487933
  C      3.295998   -0.492190    0.123268
  H     -4.376407   -0.852402    0.730378
  H     -3.323183   -1.524275   -0.513865
  H     -2.757759   -1.398638    1.153721
  H     -3.489884    0.982868   -0.613470
  H     -2.800262    1.075200    1.005376
  H     -1.134787    1.489708   -0.816215
  H     -1.419501   -0.131876   -1.436302
  H     -0.461240   -1.129126    0.609953
  H     -0.429285    0.451391    1.391362
  H      3.817339   -1.302451    0.622754
  H      3.669455    0.477107    0.455282
  H      3.403978   -0.562200   -0.959717

 Total Charge           Charge          ....    0
 Multiplicity           Mult            ....    1
 Number of Electrons    NEL             ....   64
 Basis Dimension        Dim             ....  222

ORBITAL ENERGIES
----------------

  NO   OCC          E(Eh)            E(eV)
   0   2.0000     -18.998486      -516.9751
   1   2.0000     -18.930717      -515.1310
   2   2.0000     -10.153121      -276.2805
   3   2.0000     -10.086471      -274.4668
   4   2.0000     -10.042759      -273.2774
   5   2.0000     -10.027701      -272.8676
   6   2.0000     -10.027491      -272.8619
   7   2.0000     -10.018143      -272.6075
   8   2.0000      -1.072755       -29.1912
   9   2.0000      -0.977086       -26.5879
  10   2.0000      -0.776861       -21.1395
  11   2.0000      -0.727623       -19.7996
  12   2.0000      -0.684580       -18.6284
  13   2.0000      -0.622325       -16.9343
  14   2.0000      -0.550630       -14.9834
  15   2.0000      -0.525238       -14.2924
  16   2.0000      -0.473070       -12.8729
  17   2.0000      -0.460779       -12.5384
  18   2.0000      -0.442943       -12.0531
  19   2.0000      -0.427973       -11.6457
  20   2.0000      -0.412507       -11.2249
  21   2.0000      -0.401144       -10.9157
  22   2.0000      -0.374640       -10.1945
  23   2.0000      -0.361614        -9.8400
  24   2.0000      -0.356783        -9.7086
  25   2.0000      -0.329445        -8.9647
  26   2.0000      -0.324437        -8.8284
  27   2.0000      -0.301371        -8.2007
  28   2.0000      -0.299614        -8.1529
  29   2.0000      -0.296299        -8.0627
  30   2.0000      -0.274625        -7.4729
  31   2.0000      -0.238284        -6.4840
  32   0.0000      -0.015088        -0.4106
  33   0.0000       0.067745         1.8434
  34   0.0000       0.087846         2.3904
  35   0.0000       0.099625         2.7109
  36   0.0000       0.118687         3.2296

MULLIKEN ATOMIC CHARGES
-----------------------
   0 C :   -0.489623
   1 C :   -0.226375
   2 C :   -0.255601
   3 C :   -0.333156
   4 C :    0.366791
   5 O :   -0.424924
   6 O :   -0.186582
   7 C :   -0.296674
   8 H :    0.147649
   9 H :    0.146004
  10 H :    0.147731
  11 H :    0.146220
  12 H :    0.134375
  13 H :    0.171291
  14 H :    0.141236
  15 H :    0.169233
  16 H :    0.169756
  17 H :    0.150594
  18 H :    0.157820
  19 H :    0.164234
Sum of atomic charges:   -0.0000000

LOEWDIN ATOMIC CHARGES
----------------------
   0 C :   -0.425848
   1 C :   -0.315384
   2 C :   -0.289994
   3 C :   -0.230542
   4 C :    0.359174
   5 O :   -0.428902
   6 O :   -0.604953
   7 C :   -0.045180
   8 H :    0.151173
   9 H :    0.150790
  10 H :    0.148255
  11 H :    0.153846
  12 H :    0.151143
  13 H :    0.173743
  14 H :    0.159483
  15 H :    0.180730
  16 H :    0.183463
  17 H :    0.175967
  18 H :    0.174759
  19 H :    0.178278

  Mayer bond orders larger than 0.100000
B(  0-C ,  1-C ) :   0.8818 B(  0-C ,  8-H ) :   0.9691 B(  0-C ,  9-H ) :   0.9814
B(  0-C , 10-H ) :   0.9825 B(  1-C ,  2-C ) :   0.8782 B(  1-C , 11-H ) :   0.9738
B(  1-C , 12-H ) :   0.9912 B(  2-C ,  3-C ) :   0.9354 B(  2-C , 13-H ) :   0.9632
B(  2-C , 14-H ) :   0.9708 B(  3-C ,  4-C ) :   1.0011 B(  3-C , 15-H ) :   0.9574
B(  3-C , 16-H ) :   0.9411 B(  4-C ,  5-O ) :   1.8181 B(  4-C ,  6-O ) :   1.0737
B(  6-O ,  7-C ) :   0.8488 B(  7-C , 17-H ) :   0.9699 B(  7-C , 18-H ) :   0.9614
B(  7-C , 19-H ) :   0.9644

Dispersion correction           -0.004984295
FINAL SINGLE POINT ENERGY      -386.230738475300

DIPOLE MOMENT
-------------

Method             : SCF
Type of density    : Electron Density
Multiplicity       :   1
Irrep              :   0
Energy             :  -386.2377693716234717 Eh
Relativity type    :
Basis              : AO
                                X                 Y                 Z
Electronic contribution:      8.701782163       1.763884059      -1.051752145
Nuclear contribution   :     -8.677749464      -2.268986870       1.522430163
                        -----------------------------------------
Total Dipole Moment    :      0.024032698      -0.505102811       0.470678018
                        -----------------------------------------
Magnitude (a.u.)       :      0.690828645
Magnitude (Debye)      :      1.755946868

Rotational constants in cm-1:             0.188277             0.027962             0.025306
Rotational constants in MHz :          5644.389084           838.277904           758.651048

                             ****ORCA TERMINATED NORMALLY****
TOTAL RUN TIME: 0 days 0 hours 0 minutes 25 seconds 367 msec
