                         Program Version 6.0.0  -   RELEASE  -
|  1> ! r2scan-3c def2/J RI DEFGRID2 scfconv6 printgap
|  2> %output
|  3>     printlevel normal
|  4> end
|  5> %cpcm
|  6>     smd true
|  7>     smdsolvent "water"
|  8> end
|  9> * xyz 0 1
| 10> C -3.3477957285 -0.9102462919 0.3833586428
| 11> C -2.8142043915 0.486847257 0.0858477789
| 12> C -1.4150498649 0.4741888032 -0.5281971251
| 13> C -0.351176916 -0.0607872249 0.4285609496
| 14> C 1.0430731367 0.1862663574 -0.0830151882
| 15> O 1.3599451203 1.0259074242 -0.898230262
| 16> O 1.920450928 -0.6359944461 0.48793272
| 17> C 3.295997993 -0.4921895665 0.1232681824
| 18> H -4.3764071242 -0.8524016056 0.7303780657
| 19> H -3.3231834347 -1.5242745121 -0.5138649967
| 20> H -2.7577585662 -1.3986380424 1.1537205776
| 21> H -3.4898837768 0.9828676054 -0.6134698066
| 22> H -2.8002624963 1.0751995515 1.005375816
| 23> H -1.1347874057 1.4897077752 -0.8162146683
| 24> H -1.419500928 -0.1318759719 -1.4363024852
| 25> H -0.4612398467 -1.1291264108 0.6099527788
| 26> H -0.4292850681 0.451390787 1.391361768
| 27> H 3.817338965 -1.3024509832 0.6227538044
| 28> H 3.6694549803 0.4771066903 0.4552821441
| 29> H 3.4039782737 -0.5622003747 -0.9597165708
| 30> *
| 31>
| 32>                          ****END OF INPUT****

CARTESIAN COORDINATES (ANGSTROEM)
---------------------------------
  C     -3.347796   -0.910246    0.383359
  C     -2.814204    0.486847    0.085848
  C     -1.415050    0.474189   -0.528197
  C     -0.351177   -0.060787    0.428561
  C      1.043073    0.186266   -0.083015
  O      1.359945    1.025907   -0.898230
  O      1.920451   -0.635994    0.487933
  C      3.295998   -0.492190    0.123268
  H     -4.376407   -0.852402    0.730378
  H     -3.323183   -1.524275   -0.513865
  H     -2.757759   -1.398638    1.153721
  H     -3.489884    0.982868   -0.613470
  H     -2.800262    1.075200    1.005376
  H     -1.134787    1.489708   -0.816215
  H     -1.419501   -0.131876   -1.436302
  H     -0.461240   -1.129126    0.609953
  H     -0.429285    0.451391    1.391362
  H      3.817339   -1.302451    0.622754
  H      3.669455    0.477107    0.455282
  H      3.403978   -0.562200   -0.959717

 Total Charge           Charge          ....    0
 Multiplicity           Mult            ....    1
 Number of Electrons    NEL             ....   64
 Basis Dimension        Dim             ....  222

ORBITAL ENERGIES
----------------

  NO   OCC          E(Eh)            E(eV)
   0   2.0000     -19.003385      -517.1084
   1   2.0000     -18.945244      -515.5263
   2   2.0000     -10.162521      -276.5362
   3   2.0000     -10.076180      -274.1868
   4   2.0000     -10.035601      -273.0826
   5   2.0000     -10.022058      -272.7141
   6   2.0000     -10.018407      -272.6147
   7   2.0000     -10.007676      -272.3227
   8   2.0000      -1.079199       -29.3665
   9   2.0000      -0.989486       -26.9253
  10   2.0000      -0.770513       -20.9667
  11   2.0000      -0.722063       -19.6483
  12   2.0000      -0.677683       -18.4407
  13   2.0000      -0.614742       -16.7280
  14   2.0000      -0.544326       -14.8119
  15   2.0000      -0.522133       -14.2080
  16   2.0000      -0.473145       -12.8749
  17   2.0000      -0.460618       -12.5341
  18   2.0000      -0.451834       -12.2950
  19   2.0000      -0.423712       -11.5298
  20   2.0000      -0.405570       -11.0361
  21   2.0000      -0.394717       -10.7408
  22   2.0000      -0.370300       -10.0764
  23   2.0000      -0.357940        -9.7400
  24   2.0000      -0.349844        -9.5197
  25   2.0000      -0.325897        -8.8681
  26   2.0000      -0.324252        -8.8233
  27   2.0000      -0.294071        -8.0021
  28   2.0000      -0.292763        -7.9665
  29   2.0000      -0.288658        -7.8548
  30   2.0000      -0.280110        -7.6222
  31   2.0000      -0.253854        -6.9077
  32   0.0000      -0.021931        -0.5968
  33   0.0000       0.072855         1.9825
  34   0.0000       0.096031         2.6131
  35   0.0000       0.109334         2.9751
  36   0.0000       0.127469         3.4686

MULLIKEN ATOMIC CHARGES
-----------------------
   0 C :   -0.524753
   1 C :   -0.245752
   2 C :   -0.271161
   3 C :   -0.341259
   4 C :    0.412388
   5 O :   -0.509610
   6 O :   -0.203149
   7 C :   -0.331395
   8 H :    0.156908
   9 H :    0.155898
  10 H :    0.160892
  11 H :    0.153605
  12 H :    0.147139
  13 H :    0.158903
  14 H :    0.157838
  15 H :    0.188252
  16 H :    0.201609
  17 H :    0.178265
  18 H :    0.178015
  19 H :    0.177368
Sum of atomic charges:   -0.0000000

LOEWDIN ATOMIC CHARGES
----------------------
   0 C :   -0.432628
   1 C :   -0.315124
   2 C :   -0.293245
   3 C :   -0.227120
   4 C :    0.370892
   5 O :   -0.489724
   6 O :   -0.608080
   7 C :   -0.043164
   8 H :    0.153008
   9 H :    0.153375
  10 H :    0.152530
  11 H :    0.155641
  12 H :    0.155254
  13 H :    0.167982
  14 H :    0.162663
  15 H :    0.189749
  16 H :    0.195983
  17 H :    0.188038
  18 H :    0.181255
  19 H :    0.182716

  Mayer bond orders larger than 0.100000
B(  0-C ,  1-C ) :   0.8823 B(  0-C ,  8-H ) :   0.9680 B(  0-C ,  9-H ) :   0.9784
B(  0-C , 10-H ) :   0.9784 B(  1-C ,  2-C ) :   0.8832 B(  1-C , 11-H ) :   0.9735
B(  1-C , 12-H ) :   0.9901 B(  2-C ,  3-C ) :   0.9209 B(  2-C , 13-H ) :   0.9649
B(  2-C , 14-H ) :   0.9700 B(  3-C ,  4-C ) :   1.0043 B(  3-C , 15-H ) :   0.9481
B(  3-C , 16-H ) :   0.9278 B(  4-C ,  5-O ) :   1.7592 B(  4-C ,  6-O ) :   1.0965
B(  6-O ,  7-C ) :   0.8291 B(  7-C , 17-H ) :   0.9597 B(  7-C , 18-H ) :   0.9560
B(  7-C , 19-H ) :   0.9591

Dispersion correction           -0.004984295
FINAL SINGLE POINT ENERGY      -386.235512932747

DIPOLE MOMENT
-------------

Method             : SCF
Type of density    : Electron Density
Multiplicity       :   1
Irrep              :   0
Energy             :  -386.2425438290713373 Eh
Relativity type    :
Basis              : AO
                                X                 Y                 Z
Electronic contribution:      8.684412346       1.512609493      -0.787900511
Nuclear contribution   :     -8.677749464      -2.268986870       1.522430163
                        -----------------------------------------
Total Dipole Moment    :      0.006662881      -0.756377377       0.734529652
                        -----------------------------------------
Magnitude (a.u.)       :      1.054364709
Magnitude (Debye)      :      2.679982110

Rotational constants in cm-1:             0.188277             0.027962             0.025306
Rotational constants in MHz :          5644.389084           838.277904           758.651048

                             ****ORCA TERMINATED NORMALLY****
TOTAL RUN TIME: 0 days 0 hours 0 minutes 33 seconds 295 msec
