                         Program Version 6.0.0  -   RELEASE  -
|  1> ! pbe def2-sv(p) def2/J RI DEFGRID1 loosescf d4 GCP(DFT/SV(P)) printgap
|  2> %output
|  3>     printlevel normal
|  4> end
|  5> * xyz 0 1
|  6> C -3.1309173885 -1.119268924 0.0081568526
|  7> C -1.9446873985 -0.2830241507 0.4731126469
|  8> C -1.3592259485 0.5451782977 -0.668838469
|  9> C -0.1658992418 1.3924642739 -0.2110356788
| 10> C 0.978508502 0.5221172762 0.2372409939
| 11> O 1.4420815334 0.4995602 1.3588637021
| 12> O 1.4393613202 -0.2363621556 -0.7509670793
| 13> C 2.521505366 -1.1213262764 -0.4556796195
| 14> H -3.5354505813 -1.698890444 0.8337708061
| 15> H -3.9175406382 -0.4771088597 -0.3803918952
| 16> H -2.8275117743 -1.8057574026 -0.7787007692
| 17> H -2.2609526459 0.3842719552 1.2777586577
| 18> H -1.1709633631 -0.9389337257 0.881118241
| 19> H -2.1287529717 1.2106735363 -1.0622345406
| 20> H -1.0363577296 -0.1171077392 -1.4737078906
| 21> H -0.4480639672 2.0374504395 0.6209897814
| 22> H 0.1838492811 2.0030109258 -1.0440967864
| 23> H 2.2223484349 -1.8345073654 0.3135115433
| 24> H 3.3803842167 -0.5534991116 -0.0958336884
| 25> H 2.7497909791 -1.6266022053 -1.3887153226
| 26> *
| 27>
| 28>                          ****END OF INPUT****

CARTESIAN COORDINATES (ANGSTROEM)
---------------------------------
  C     -3.130917   -1.119269    0.008157
  C     -1.944687   -0.283024    0.473113
  C     -1.359226    0.545178   -0.668838
  C     -0.165899    1.392464   -0.211036
  C      0.978509    0.522117    0.237241
  O      1.442082    0.499560    1.358864
  O      1.439361   -0.236362   -0.750967
  C      2.521505   -1.121326   -0.455680
  H     -3.535451   -1.698890    0.833771
  H     -3.917541   -0.477109   -0.380392
  H     -2.827512   -1.805757   -0.778701
  H     -2.260953    0.384272    1.277759
  H     -1.170963   -0.938934    0.881118
  H     -2.128753    1.210674   -1.062235
  H     -1.036358   -0.117108   -1.473708
  H     -0.448064    2.037450    0.620990
  H      0.183849    2.003011   -1.044097
  H      2.222348   -1.834507    0.313512
  H      3.380384   -0.553499   -0.095834
  H      2.749791   -1.626602   -1.388715

 Total Charge           Charge          ....    0
 Multiplicity           Mult            ....    1
 Number of Electrons    NEL             ....   64
 Basis Dimension        Dim             ....  136

ORBITAL ENERGIES
----------------

  NO   OCC          E(Eh)            E(eV)
   0   2.0000     -18.799545      -511.5616
   1   2.0000     -18.730343      -509.6786
   2   2.0000     -10.003665      -272.2136
   3   2.0000      -9.942346      -270.5450
   4   2.0000      -9.896691      -269.3027
   5   2.0000      -9.891946      -269.1735
   6   2.0000      -9.885960      -269.0106
   7   2.0000      -9.876218      -268.7455
   8   2.0000      -1.005579       -27.3632
   9   2.0000      -0.906839       -24.6764
  10   2.0000      -0.733653       -19.9637
  11   2.0000      -0.684820       -18.6349
  12   2.0000      -0.645386       -17.5619
  13   2.0000      -0.578965       -15.7545
  14   2.0000      -0.525187       -14.2911
  15   2.0000      -0.506693       -13.7878
  16   2.0000      -0.451377       -12.2826
  17   2.0000      -0.435936       -11.8624
  18   2.0000      -0.414842       -11.2884
  19   2.0000      -0.411378       -11.1942
  20   2.0000      -0.390616       -10.6292
  21   2.0000      -0.378412       -10.2971
  22   2.0000      -0.368289       -10.0216
  23   2.0000      -0.346082        -9.4174
  24   2.0000      -0.335790        -9.1373
  25   2.0000      -0.321998        -8.7620
  26   2.0000      -0.306316        -8.3353
  27   2.0000      -0.296116        -8.0577
  28   2.0000      -0.290327        -7.9002
  29   2.0000      -0.285759        -7.7759
  30   2.0000      -0.257468        -7.0061
  31   2.0000      -0.213381        -5.8064
  32   0.0000      -0.019242        -0.5236
  33   0.0000       0.037130         1.0104
  34   0.0000       0.054640         1.4868
  35   0.0000       0.061863         1.6834
  36   0.0000       0.075239         2.0474

MULLIKEN ATOMIC CHARGES
-----------------------
   0 C :   -0.256072
   1 C :   -0.209860
   2 C :   -0.211178
   3 C :   -0.073312
   4 C :    0.073023
   5 O :   -0.206484
   6 O :   -0.244464
   7 C :   -0.107520
   8 H :    0.104685
   9 H :    0.097110
  10 H :    0.096930
  11 H :    0.088555
  12 H :    0.105063
  13 H :    0.088700
  14 H :    0.097382
  15 H :    0.094670
  16 H :    0.105262
  17 H :    0.117624
  18 H :    0.119638
  19 H :    0.120246
Sum of atomic charges:   -0.0000000

LOEWDIN ATOMIC CHARGES
----------------------
   0 C :   -0.338874
   1 C :   -0.236249
   2 C :   -0.222838
   3 C :   -0.240517
   4 C :    0.031040
   5 O :   -0.167276
   6 O :   -0.076052
   7 C :   -0.203028
   8 H :    0.120062
   9 H :    0.116834
  10 H :    0.117140
  11 H :    0.117417
  12 H :    0.117713
  13 H :    0.117390
  14 H :    0.118688
  15 H :    0.132589
  16 H :    0.137623
  17 H :    0.118722
  18 H :    0.119737
  19 H :    0.119879

  Mayer bond orders larger than 0.100000
B(  0-C ,  1-C ) :   1.1549 B(  0-C ,  8-H ) :   0.9534 B(  0-C ,  9-H ) :   0.9544
B(  0-C , 10-H ) :   0.9546 B(  1-C ,  2-C ) :   1.1300 B(  1-C , 11-H ) :   0.9252
B(  1-C , 12-H ) :   0.9198 B(  2-C ,  3-C ) :   1.1108 B(  2-C , 13-H ) :   0.9215
B(  2-C , 14-H ) :   0.9190 B(  3-C ,  4-C ) :   1.0327 B(  3-C , 15-H ) :   0.9061
B(  3-C , 16-H ) :   0.8939 B(  4-C ,  5-O ) :   2.0657 B(  4-C ,  6-O ) :   1.1919
B(  6-O ,  7-C ) :   0.9425 B(  7-C , 17-H ) :   0.9520 B(  7-C , 18-H ) :   0.9521
B(  7-C , 19-H ) :   0.9587

Dispersion correction           -0.015248969
FINAL SINGLE POINT ENERGY      -385.452578145764

DIPOLE MOMENT
-------------

Method             : SCF
Type of density    : Electron Density
Multiplicity       :   1
Irrep              :   0
Energy             :  -385.5274969061637762 Eh
Relativity type    :
Basis              : AO
                                X                 Y                 Z
Electronic contribution:      8.107761564       2.934203349       1.459738561
Nuclear contribution   :     -8.203027710      -3.201812863      -2.145515724
                        -----------------------------------------
Total Dipole Moment    :     -0.095266146      -0.267609514      -0.685777164
                        -----------------------------------------
Magnitude (a.u.)       :      0.742280815
Magnitude (Debye)      :      1.886727891

Rotational constants in cm-1:             0.112336             0.035837             0.033293
Rotational constants in MHz :          3367.746098          1074.358093           998.103914

                             ****ORCA TERMINATED NORMALLY****
TOTAL RUN TIME: 0 days 0 hours 0 minutes 10 seconds 757 msec
