                         Program Version 6.0.0  -   RELEASE  -
|  1> ! pbe def2-sv(p) def2/J RI DEFGRID1 loosescf d4 GCP(DFT/SV(P)) printgap
|  2> %output
|  3>     printlevel normal
|  4> end
|  5> * xyz 0 1
|  6> C -2.309825047 -1.302830964 -0.1872637085
|  7> C -1.9070249499 -0.2158643876 0.803443757
|  8> C -1.5552572715 1.1143528439 0.1352986652
|  9> C -0.3729007226 1.0124939518 -0.8379614905
| 10> C 0.8505700061 0.500260713 -0.1262723629
| 11> O 1.4296915388 1.0745498986 0.7721123681
| 12> O 1.2325175201 -0.6845098957 -0.5928112887
| 13> C 2.3797875224 -1.2934718827 0.0038511802
| 14> H -1.4640074837 -1.6044719254 -0.7993494834
| 15> H -2.6693645982 -2.1790976393 0.3463274195
| 16> H -3.1047820735 -0.9462084345 -0.8377152045
| 17> H -2.7327889596 -0.0392241407 1.4959394307
| 18> H -1.053641424 -0.558244476 1.3948104062
| 19> H -1.3020755578 1.8402580154 0.910654568
| 20> H -2.4217289175 1.4857452504 -0.413183411
| 21> H -0.146752519 2.0078361443 -1.2221335435
| 22> H -0.6030093089 0.3458664246 -1.6662605508
| 23> H 2.5393515225 -2.2179438897 -0.5418166168
| 24> H 2.1907989927 -1.4897468347 1.0600146126
| 25> H 3.2415781517 -0.6309314655 -0.084033568
| 26> *
| 27>
| 28>                          ****END OF INPUT****

CARTESIAN COORDINATES (ANGSTROEM)
---------------------------------
  C     -2.309825   -1.302831   -0.187264
  C     -1.907025   -0.215864    0.803444
  C     -1.555257    1.114353    0.135299
  C     -0.372901    1.012494   -0.837961
  C      0.850570    0.500261   -0.126272
  O      1.429692    1.074550    0.772112
  O      1.232518   -0.684510   -0.592811
  C      2.379788   -1.293472    0.003851
  H     -1.464007   -1.604472   -0.799349
  H     -2.669365   -2.179098    0.346327
  H     -3.104782   -0.946208   -0.837715
  H     -2.732789   -0.039224    1.495939
  H     -1.053641   -0.558244    1.394810
  H     -1.302076    1.840258    0.910655
  H     -2.421729    1.485745   -0.413183
  H     -0.146753    2.007836   -1.222134
  H     -0.603009    0.345866   -1.666261
  H      2.539352   -2.217944   -0.541817
  H      2.190799   -1.489747    1.060015
  H      3.241578   -0.630931   -0.084034

 Total Charge           Charge          ....    0
 Multiplicity           Mult            ....    1
 Number of Electrons    NEL             ....   64
 Basis Dimension        Dim             ....  136

ORBITAL ENERGIES
----------------

  NO   OCC          E(Eh)            E(eV)
   0   2.0000     -18.801639      -511.6186
   1   2.0000     -18.731808      -509.7184
   2   2.0000     -10.004547      -272.2376
   3   2.0000      -9.942510      -270.5494
   4   2.0000      -9.895890      -269.2809
   5   2.0000      -9.891259      -269.1548
   6   2.0000      -9.885990      -269.0115
   7   2.0000      -9.874815      -268.7074
   8   2.0000      -1.006391       -27.3853
   9   2.0000      -0.908681       -24.7265
  10   2.0000      -0.732677       -19.9371
  11   2.0000      -0.682428       -18.5698
  12   2.0000      -0.645966       -17.5776
  13   2.0000      -0.585141       -15.9225
  14   2.0000      -0.524328       -14.2677
  15   2.0000      -0.496989       -13.5238
  16   2.0000      -0.448764       -12.2115
  17   2.0000      -0.437328       -11.9003
  18   2.0000      -0.425451       -11.5771
  19   2.0000      -0.410402       -11.1676
  20   2.0000      -0.397102       -10.8057
  21   2.0000      -0.372042       -10.1238
  22   2.0000      -0.360825        -9.8185
  23   2.0000      -0.346927        -9.4404
  24   2.0000      -0.341521        -9.2933
  25   2.0000      -0.326278        -8.8785
  26   2.0000      -0.303084        -8.2473
  27   2.0000      -0.291641        -7.9359
  28   2.0000      -0.286552        -7.7975
  29   2.0000      -0.285173        -7.7599
  30   2.0000      -0.258748        -7.0409
  31   2.0000      -0.217430        -5.9166
  32   0.0000      -0.021331        -0.5805
  33   0.0000       0.034905         0.9498
  34   0.0000       0.055203         1.5022
  35   0.0000       0.070232         1.9111
  36   0.0000       0.078416         2.1338

MULLIKEN ATOMIC CHARGES
-----------------------
   0 C :   -0.294007
   1 C :   -0.192245
   2 C :   -0.183642
   3 C :   -0.123725
   4 C :    0.084782
   5 O :   -0.211203
   6 O :   -0.239417
   7 C :   -0.111222
   8 H :    0.111324
   9 H :    0.103018
  10 H :    0.096953
  11 H :    0.090178
  12 H :    0.103642
  13 H :    0.103122
  14 H :    0.090024
  15 H :    0.110553
  16 H :    0.100956
  17 H :    0.121414
  18 H :    0.119272
  19 H :    0.120223
Sum of atomic charges:    0.0000000

LOEWDIN ATOMIC CHARGES
----------------------
   0 C :   -0.346338
   1 C :   -0.238029
   2 C :   -0.217821
   3 C :   -0.247649
   4 C :    0.035567
   5 O :   -0.171273
   6 O :   -0.071886
   7 C :   -0.204418
   8 H :    0.117404
   9 H :    0.120429
  10 H :    0.116376
  11 H :    0.118499
  12 H :    0.117446
  13 H :    0.124328
  14 H :    0.117742
  15 H :    0.141733
  16 H :    0.127976
  17 H :    0.120480
  18 H :    0.119078
  19 H :    0.120357

  Mayer bond orders larger than 0.100000
B(  0-C ,  1-C ) :   1.1535 B(  0-C ,  8-H ) :   0.9447 B(  0-C ,  9-H ) :   0.9513
B(  0-C , 10-H ) :   0.9551 B(  1-C ,  2-C ) :   1.1359 B(  1-C , 11-H ) :   0.9250
B(  1-C , 12-H ) :   0.9137 B(  2-C ,  3-C ) :   1.1118 B(  2-C , 13-H ) :   0.9178
B(  2-C , 14-H ) :   0.9234 B(  3-C ,  4-C ) :   1.0231 B(  3-C , 15-H ) :   0.8944
B(  3-C , 16-H ) :   0.9029 B(  4-C ,  5-O ) :   2.0537 B(  4-C ,  6-O ) :   1.2010
B(  6-O ,  7-C ) :   0.9399 B(  7-C , 17-H ) :   0.9591 B(  7-C , 18-H ) :   0.9523
B(  7-C , 19-H ) :   0.9508

Dispersion correction           -0.016023285
FINAL SINGLE POINT ENERGY      -385.452965428529

DIPOLE MOMENT
-------------

Method             : SCF
Type of density    : Electron Density
Multiplicity       :   1
Irrep              :   0
Energy             :  -385.5277677620139229 Eh
Relativity type    :
Basis              : AO
                                X                 Y                 Z
Electronic contribution:      6.889838357       3.190546920      -0.041531244
Nuclear contribution   :     -7.021562966      -3.733901778      -0.332028455
                        -----------------------------------------
Total Dipole Moment    :     -0.131724609      -0.543354857      -0.373559699
                        -----------------------------------------
Magnitude (a.u.)       :      0.672408152
Magnitude (Debye)      :      1.709125695

Rotational constants in cm-1:             0.100907             0.045078             0.037096
Rotational constants in MHz :          3025.123710          1351.392409          1112.104963

                             ****ORCA TERMINATED NORMALLY****
TOTAL RUN TIME: 0 days 0 hours 0 minutes 10 seconds 952 msec
