                         Program Version 6.0.0  -   RELEASE  -
|  1> ! r2scan-3c def2/J RI DEFGRID2 scfconv6 printgap
|  2> %output
|  3>     printlevel normal
|  4> end
|  5> * xyz 0 1
|  6> C -2.4749988548 -0.7792144969 1.0278692128
|  7> C -2.0634627007 -0.7722597125 -0.4393316316
|  8> C -1.4099267371 0.5564412866 -0.8389196182
|  9> C -0.1141262902 0.7730089098 -0.1009831374
| 10> O 0.1116399461 1.6989554743 0.6526482255
| 11> O 0.7743915388 -0.1718711181 -0.3710875133
| 12> C 2.0570933221 -0.0884642603 0.2705183968
| 13> C 2.945131766 -1.176008906 -0.3020536586
| 14> H -2.9289133798 -1.7308591957 1.2909438603
| 15> H -1.6109916571 -0.6193128926 1.6705531779
| 16> H -3.1922958711 0.0135896415 1.2268546262
| 17> H -2.9435095451 -0.9272296139 -1.0642400557
| 18> H -1.3598670051 -1.583330826 -0.6308747479
| 19> H -2.0709804117 1.393488317 -0.6145633542
| 20> H -1.1872635481 0.5437492992 -1.9064342221
| 21> H 2.4685233762 0.9108343026 0.0931718552
| 22> H 1.9124493518 -0.2091413759 1.3493472899
| 23> H 3.9207930742 -1.1281261994 0.1700418892
| 24> H 2.5049022699 -2.1513836288 -0.1179045703
| 25> H 3.0576117056 -1.0388338611 -1.3734195288
| 26> *
| 27>
| 28>                          ****END OF INPUT****

CARTESIAN COORDINATES (ANGSTROEM)
---------------------------------
  C     -2.474999   -0.779214    1.027869
  C     -2.063463   -0.772260   -0.439332
  C     -1.409927    0.556441   -0.838920
  C     -0.114126    0.773009   -0.100983
  O      0.111640    1.698955    0.652648
  O      0.774392   -0.171871   -0.371088
  C      2.057093   -0.088464    0.270518
  C      2.945132   -1.176009   -0.302054
  H     -2.928913   -1.730859    1.290944
  H     -1.610992   -0.619313    1.670553
  H     -3.192296    0.013590    1.226855
  H     -2.943510   -0.927230   -1.064240
  H     -1.359867   -1.583331   -0.630875
  H     -2.070980    1.393488   -0.614563
  H     -1.187264    0.543749   -1.906434
  H      2.468523    0.910834    0.093172
  H      1.912449   -0.209141    1.349347
  H      3.920793   -1.128126    0.170042
  H      2.504902   -2.151384   -0.117905
  H      3.057612   -1.038834   -1.373420

 Total Charge           Charge          ....    0
 Multiplicity           Mult            ....    1
 Number of Electrons    NEL             ....   64
 Basis Dimension        Dim             ....  222

ORBITAL ENERGIES
----------------

  NO   OCC          E(Eh)            E(eV)
   0   2.0000     -18.996541      -516.9221
   1   2.0000     -18.926008      -515.0029
   2   2.0000     -10.149941      -276.1939
   3   2.0000     -10.092080      -274.6194
   4   2.0000     -10.040667      -273.2204
   5   2.0000     -10.036573      -273.1090
   6   2.0000     -10.032679      -273.0031
   7   2.0000     -10.019938      -272.6564
   8   2.0000      -1.072057       -29.1722
   9   2.0000      -0.972667       -26.4676
  10   2.0000      -0.776208       -21.1217
  11   2.0000      -0.741875       -20.1874
  12   2.0000      -0.677809       -18.4441
  13   2.0000      -0.615777       -16.7561
  14   2.0000      -0.569913       -15.5081
  15   2.0000      -0.534047       -14.5322
  16   2.0000      -0.471158       -12.8209
  17   2.0000      -0.453831       -12.3494
  18   2.0000      -0.439747       -11.9661
  19   2.0000      -0.424419       -11.5490
  20   2.0000      -0.410301       -11.1648
  21   2.0000      -0.379590       -10.3292
  22   2.0000      -0.378057       -10.2875
  23   2.0000      -0.370925       -10.0934
  24   2.0000      -0.355347        -9.6695
  25   2.0000      -0.334578        -9.1043
  26   2.0000      -0.327401        -8.9090
  27   2.0000      -0.312976        -8.5165
  28   2.0000      -0.310161        -8.4399
  29   2.0000      -0.308878        -8.4050
  30   2.0000      -0.270998        -7.3742
  31   2.0000      -0.230131        -6.2622
  32   0.0000      -0.014521        -0.3951
  33   0.0000       0.070559         1.9200
  34   0.0000       0.094734         2.5778
  35   0.0000       0.114349         3.1116
  36   0.0000       0.120057         3.2669

MULLIKEN ATOMIC CHARGES
-----------------------
   0 C :   -0.480184
   1 C :   -0.227828
   2 C :   -0.316614
   3 C :    0.346119
   4 O :   -0.416624
   5 O :   -0.160038
   6 C :   -0.145744
   7 C :   -0.443285
   8 H :    0.147257
   9 H :    0.154544
  10 H :    0.149280
  11 H :    0.145397
  12 H :    0.152245
  13 H :    0.169916
  14 H :    0.158876
  15 H :    0.161517
  16 H :    0.153359
  17 H :    0.147489
  18 H :    0.151464
  19 H :    0.152853
Sum of atomic charges:   -0.0000000

LOEWDIN ATOMIC CHARGES
----------------------
   0 C :   -0.414828
   1 C :   -0.293753
   2 C :   -0.231312
   3 C :    0.348958
   4 O :   -0.424873
   5 O :   -0.603122
   6 C :    0.034266
   7 C :   -0.386962
   8 H :    0.151722
   9 H :    0.155958
  10 H :    0.153396
  11 H :    0.153074
  12 H :    0.163684
  13 H :    0.177539
  14 H :    0.179208
  15 H :    0.181671
  16 H :    0.177304
  17 H :    0.159716
  18 H :    0.158887
  19 H :    0.159466

  Mayer bond orders larger than 0.100000
B(  0-C ,  1-C ) :   0.9132 B(  0-C ,  8-H ) :   0.9702 B(  0-C ,  9-H ) :   0.9707
B(  0-C , 10-H ) :   0.9782 B(  1-C ,  2-C ) :   0.8856 B(  1-C , 11-H ) :   0.9643
B(  1-C , 12-H ) :   0.9726 B(  2-C ,  3-C ) :   0.9557 B(  2-C , 13-H ) :   1.0049
B(  2-C , 14-H ) :   0.9464 B(  3-C ,  4-O ) :   1.8297 B(  3-C ,  5-O ) :   1.0541
B(  5-O ,  6-C ) :   0.8075 B(  6-C ,  7-C ) :   0.9413 B(  6-C , 15-H ) :   0.9574
B(  6-C , 16-H ) :   0.9500 B(  7-C , 17-H ) :   0.9682 B(  7-C , 18-H ) :   0.9710
B(  7-C , 19-H ) :   0.9734

Dispersion correction           -0.005103132
FINAL SINGLE POINT ENERGY      -386.235974159500

DIPOLE MOMENT
-------------

Method             : SCF
Type of density    : Electron Density
Multiplicity       :   1
Irrep              :   0
Energy             :  -386.2425046470640950 Eh
Relativity type    :
Basis              : AO
                                X                 Y                 Z
Electronic contribution:      1.491987150       5.295009787      -0.507959936
Nuclear contribution   :     -1.328010139      -6.100353667       0.091871306
                        -----------------------------------------
Total Dipole Moment    :      0.163977011      -0.805343880      -0.416088631
                        -----------------------------------------
Magnitude (a.u.)       :      0.921193233
Magnitude (Debye)      :      2.341487118

Rotational constants in cm-1:             0.109446             0.038128             0.033707
Rotational constants in MHz :          3281.099499          1143.036234          1010.506560

                             ****ORCA TERMINATED NORMALLY****
TOTAL RUN TIME: 0 days 0 hours 0 minutes 31 seconds 24 msec
