                         Program Version 6.0.0  -   RELEASE  -
|  1> ! r2scan-3c def2/J RI DEFGRID2 scfconv6 printgap
|  2> %output
|  3>     printlevel normal
|  4> end
|  5> %cpcm
|  6>     smd true
|  7>     smdsolvent "water"
|  8> end
|  9> * xyz 0 1
| 10> C -2.4749988548 -0.7792144969 1.0278692128
| 11> C -2.0634627007 -0.7722597125 -0.4393316316
| 12> C -1.4099267371 0.5564412866 -0.8389196182
| 13> C -0.1141262902 0.7730089098 -0.1009831374
| 14> O 0.1116399461 1.6989554743 0.6526482255
| 15> O 0.7743915388 -0.1718711181 -0.3710875133
| 16> C 2.0570933221 -0.0884642603 0.2705183968
| 17> C 2.945131766 -1.176008906 -0.3020536586
| 18> H -2.9289133798 -1.7308591957 1.2909438603
| 19> H -1.6109916571 -0.6193128926 1.6705531779
| 20> H -3.1922958711 0.0135896415 1.2268546262
| 21> H -2.9435095451 -0.9272296139 -1.0642400557
| 22> H -1.3598670051 -1.583330826 -0.6308747479
| 23> H -2.0709804117 1.393488317 -0.6145633542
| 24> H -1.1872635481 0.5437492992 -1.9064342221
| 25> H 2.4685233762 0.9108343026 0.0931718552
| 26> H 1.9124493518 -0.2091413759 1.3493472899
| 27> H 3.9207930742 -1.1281261994 0.1700418892
| 28> H 2.5049022699 -2.1513836288 -0.1179045703
| 29> H 3.0576117056 -1.0388338611 -1.3734195288
| 30> *
| 31>
| 32>                          ****END OF INPUT****

CARTESIAN COORDINATES (ANGSTROEM)
---------------------------------
  C     -2.474999   -0.779214    1.027869
  C     -2.063463   -0.772260   -0.439332
  C     -1.409927    0.556441   -0.838920
  C     -0.114126    0.773009   -0.100983
  O      0.111640    1.698955    0.652648
  O      0.774392   -0.171871   -0.371088
  C      2.057093   -0.088464    0.270518
  C      2.945132   -1.176009   -0.302054
  H     -2.928913   -1.730859    1.290944
  H     -1.610992   -0.619313    1.670553
  H     -3.192296    0.013590    1.226855
  H     -2.943510   -0.927230   -1.064240
  H     -1.359867   -1.583331   -0.630875
  H     -2.070980    1.393488   -0.614563
  H     -1.187264    0.543749   -1.906434
  H      2.468523    0.910834    0.093172
  H      1.912449   -0.209141    1.349347
  H      3.920793   -1.128126    0.170042
  H      2.504902   -2.151384   -0.117905
  H      3.057612   -1.038834   -1.373420

 Total Charge           Charge          ....    0
 Multiplicity           Mult            ....    1
 Number of Electrons    NEL             ....   64
 Basis Dimension        Dim             ....  222

ORBITAL ENERGIES
----------------

  NO   OCC          E(Eh)            E(eV)
   0   2.0000     -19.002263      -517.0779
   1   2.0000     -18.943379      -515.4755
   2   2.0000     -10.161690      -276.5136
   3   2.0000     -10.084213      -274.4054
   4   2.0000     -10.035523      -273.0805
   5   2.0000     -10.028568      -272.8912
   6   2.0000     -10.018817      -272.6259
   7   2.0000     -10.011740      -272.4333
   8   2.0000      -1.079742       -29.3813
   9   2.0000      -0.987694       -26.8765
  10   2.0000      -0.771443       -20.9920
  11   2.0000      -0.733628       -19.9630
  12   2.0000      -0.671963       -18.2850
  13   2.0000      -0.608989       -16.5714
  14   2.0000      -0.563805       -15.3419
  15   2.0000      -0.532352       -14.4860
  16   2.0000      -0.470068       -12.7912
  17   2.0000      -0.454153       -12.3581
  18   2.0000      -0.450839       -12.2680
  19   2.0000      -0.420558       -11.4440
  20   2.0000      -0.405433       -11.0324
  21   2.0000      -0.376045       -10.2327
  22   2.0000      -0.372814       -10.1448
  23   2.0000      -0.363589        -9.8938
  24   2.0000      -0.348892        -9.4938
  25   2.0000      -0.329138        -8.9563
  26   2.0000      -0.321974        -8.7614
  27   2.0000      -0.312383        -8.5004
  28   2.0000      -0.306570        -8.3422
  29   2.0000      -0.302070        -8.2197
  30   2.0000      -0.276480        -7.5234
  31   2.0000      -0.247350        -6.7307
  32   0.0000      -0.023629        -0.6430
  33   0.0000       0.075217         2.0467
  34   0.0000       0.103791         2.8243
  35   0.0000       0.123343         3.3563
  36   0.0000       0.125610         3.4180

MULLIKEN ATOMIC CHARGES
-----------------------
   0 C :   -0.526951
   1 C :   -0.221502
   2 C :   -0.337157
   3 C :    0.390445
   4 O :   -0.506806
   5 O :   -0.172937
   6 C :   -0.149523
   7 C :   -0.491964
   8 H :    0.161627
   9 H :    0.161472
  10 H :    0.163051
  11 H :    0.163050
  12 H :    0.155916
  13 H :    0.179421
  14 H :    0.188653
  15 H :    0.171171
  16 H :    0.172727
  17 H :    0.168952
  18 H :    0.164806
  19 H :    0.165551
Sum of atomic charges:   -0.0000000

LOEWDIN ATOMIC CHARGES
----------------------
   0 C :   -0.422935
   1 C :   -0.290192
   2 C :   -0.229282
   3 C :    0.358769
   4 O :   -0.489107
   5 O :   -0.602289
   6 C :    0.036592
   7 C :   -0.389852
   8 H :    0.156425
   9 H :    0.155978
  10 H :    0.156139
  11 H :    0.160181
  12 H :    0.164705
  13 H :    0.181376
  14 H :    0.190948
  15 H :    0.185171
  16 H :    0.183801
  17 H :    0.168346
  18 H :    0.162563
  19 H :    0.162663

  Mayer bond orders larger than 0.100000
B(  0-C ,  1-C ) :   0.8982 B(  0-C ,  8-H ) :   0.9661 B(  0-C ,  9-H ) :   0.9693
B(  0-C , 10-H ) :   0.9771 B(  1-C ,  2-C ) :   0.8769 B(  1-C , 11-H ) :   0.9612
B(  1-C , 12-H ) :   0.9719 B(  2-C ,  3-C ) :   0.9540 B(  2-C , 13-H ) :   1.0008
B(  2-C , 14-H ) :   0.9366 B(  3-C ,  4-O ) :   1.7549 B(  3-C ,  5-O ) :   1.0863
B(  5-O ,  6-C ) :   0.7934 B(  6-C ,  7-C ) :   0.9436 B(  6-C , 15-H ) :   0.9505
B(  6-C , 16-H ) :   0.9418 B(  7-C , 17-H ) :   0.9617 B(  7-C , 18-H ) :   0.9685
B(  7-C , 19-H ) :   0.9717

Dispersion correction           -0.005103132
FINAL SINGLE POINT ENERGY      -386.241840825080

DIPOLE MOMENT
-------------

Method             : SCF
Type of density    : Electron Density
Multiplicity       :   1
Irrep              :   0
Energy             :  -386.2483713126444513 Eh
Relativity type    :
Basis              : AO
                                X                 Y                 Z
Electronic contribution:      1.509634503       4.992146505      -0.707293764
Nuclear contribution   :     -1.328010139      -6.100353667       0.091871306
                        -----------------------------------------
Total Dipole Moment    :      0.181624364      -1.108207162      -0.615422458
                        -----------------------------------------
Magnitude (a.u.)       :      1.280568360
Magnitude (Debye)      :      3.254946096

Rotational constants in cm-1:             0.109446             0.038128             0.033707
Rotational constants in MHz :          3281.099499          1143.036234          1010.506560

                             ****ORCA TERMINATED NORMALLY****
TOTAL RUN TIME: 0 days 0 hours 0 minutes 37 seconds 469 msec
