                         Program Version 6.0.0  -   RELEASE  -
|  1> ! r2scan-3c def2/J RI DEFGRID2 scfconv6 printgap
|  2> %output
|  3>     printlevel normal
|  4> end
|  5> * xyz 0 1
|  6> C -2.4784595245 -0.9755457104 0.9439626952
|  7> C -2.5538550578 0.0796050765 -0.1529297169
|  8> C -1.2892916847 0.0846776036 -1.0179035591
|  9> C -0.0946185595 0.5354043432 -0.2172602596
| 10> O -0.0329787923 1.5682954119 0.4185149219
| 11> O 0.9016591293 -0.3354554806 -0.2893287881
| 12> C 2.1238451529 -0.0354206232 0.4060727973
| 13> C 3.232600909 -0.8812515933 -0.1904238857
| 14> H -3.3937017815 -0.9793161117 1.5297528902
| 15> H -2.337019387 -1.9643993528 0.5144412667
| 16> H -1.6452597414 -0.7681287921 1.613068935
| 17> H -2.6730879466 1.0677329225 0.2955146068
| 18> H -3.4159987776 -0.1153869854 -0.7910628752
| 19> H -1.4157389521 0.7908255021 -1.8403084981
| 20> H -1.084575374 -0.9065819443 -1.4203231609
| 21> H 2.3254802865 1.0362270343 0.3067878275
| 22> H 1.9745854637 -0.2607556642 1.4669742068
| 23> H 2.9862022394 -1.9345343367 -0.0956918811
| 24> H 3.3589874609 -0.6442235414 -1.2428056842
| 25> H 4.1599306173 -0.6803341275 0.335738703
| 26> *
| 27>
| 28>                          ****END OF INPUT****

CARTESIAN COORDINATES (ANGSTROEM)
---------------------------------
  C     -2.478460   -0.975546    0.943963
  C     -2.553855    0.079605   -0.152930
  C     -1.289292    0.084678   -1.017904
  C     -0.094619    0.535404   -0.217260
  O     -0.032979    1.568295    0.418515
  O      0.901659   -0.335455   -0.289329
  C      2.123845   -0.035421    0.406073
  C      3.232601   -0.881252   -0.190424
  H     -3.393702   -0.979316    1.529753
  H     -2.337019   -1.964399    0.514441
  H     -1.645260   -0.768129    1.613069
  H     -2.673088    1.067733    0.295515
  H     -3.415999   -0.115387   -0.791063
  H     -1.415739    0.790826   -1.840308
  H     -1.084575   -0.906582   -1.420323
  H      2.325480    1.036227    0.306788
  H      1.974585   -0.260756    1.466974
  H      2.986202   -1.934534   -0.095692
  H      3.358987   -0.644224   -1.242806
  H      4.159931   -0.680334    0.335739

 Total Charge           Charge          ....    0
 Multiplicity           Mult            ....    1
 Number of Electrons    NEL             ....   64
 Basis Dimension        Dim             ....  222

ORBITAL ENERGIES
----------------

  NO   OCC          E(Eh)            E(eV)
   0   2.0000     -18.997139      -516.9384
   1   2.0000     -18.926388      -515.0132
   2   2.0000     -10.150503      -276.2092
   3   2.0000     -10.091080      -274.5922
   4   2.0000     -10.040087      -273.2047
   5   2.0000     -10.033378      -273.0221
   6   2.0000     -10.032202      -272.9901
   7   2.0000     -10.019083      -272.6331
   8   2.0000      -1.071543       -29.1582
   9   2.0000      -0.973905       -26.5013
  10   2.0000      -0.773099       -21.0371
  11   2.0000      -0.742977       -20.2174
  12   2.0000      -0.677556       -18.4372
  13   2.0000      -0.618314       -16.8252
  14   2.0000      -0.564898       -15.3717
  15   2.0000      -0.528945       -14.3933
  16   2.0000      -0.472613       -12.8604
  17   2.0000      -0.461580       -12.5602
  18   2.0000      -0.431603       -11.7445
  19   2.0000      -0.428232       -11.6528
  20   2.0000      -0.409039       -11.1305
  21   2.0000      -0.379181       -10.3180
  22   2.0000      -0.377908       -10.2834
  23   2.0000      -0.366132        -9.9630
  24   2.0000      -0.361675        -9.8417
  25   2.0000      -0.336230        -9.1493
  26   2.0000      -0.321500        -8.7485
  27   2.0000      -0.308802        -8.4029
  28   2.0000      -0.308220        -8.3871
  29   2.0000      -0.305846        -8.3225
  30   2.0000      -0.271438        -7.3862
  31   2.0000      -0.234400        -6.3784
  32   0.0000      -0.014791        -0.4025
  33   0.0000       0.074033         2.0145
  34   0.0000       0.096907         2.6370
  35   0.0000       0.105568         2.8727
  36   0.0000       0.122865         3.3433

MULLIKEN ATOMIC CHARGES
-----------------------
   0 C :   -0.494020
   1 C :   -0.216115
   2 C :   -0.298651
   3 C :    0.334604
   4 O :   -0.423506
   5 O :   -0.161930
   6 C :   -0.154069
   7 C :   -0.441832
   8 H :    0.148577
   9 H :    0.146089
  10 H :    0.156021
  11 H :    0.161502
  12 H :    0.144122
  13 H :    0.165426
  14 H :    0.163620
  15 H :    0.170153
  16 H :    0.148230
  17 H :    0.152093
  18 H :    0.152738
  19 H :    0.146950
Sum of atomic charges:   -0.0000000

LOEWDIN ATOMIC CHARGES
----------------------
   0 C :   -0.416875
   1 C :   -0.293524
   2 C :   -0.232611
   3 C :    0.352803
   4 O :   -0.434725
   5 O :   -0.598085
   6 C :    0.032619
   7 C :   -0.386800
   8 H :    0.152827
   9 H :    0.150454
  10 H :    0.155746
  11 H :    0.167619
  12 H :    0.152680
  13 H :    0.181630
  14 H :    0.176783
  15 H :    0.186373
  16 H :    0.175542
  17 H :    0.159064
  18 H :    0.159085
  19 H :    0.159396

  Mayer bond orders larger than 0.100000
B(  0-C ,  1-C ) :   0.9050 B(  0-C ,  8-H ) :   0.9688 B(  0-C ,  9-H ) :   0.9819
B(  0-C , 10-H ) :   0.9732 B(  1-C ,  2-C ) :   0.8912 B(  1-C , 11-H ) :   0.9667
B(  1-C , 12-H ) :   0.9657 B(  2-C ,  3-C ) :   0.9397 B(  2-C , 13-H ) :   0.9348
B(  2-C , 14-H ) :   1.0059 B(  3-C ,  4-O ) :   1.8229 B(  3-C ,  5-O ) :   1.0718
B(  5-O ,  6-C ) :   0.7955 B(  6-C ,  7-C ) :   0.9442 B(  6-C , 15-H ) :   0.9616
B(  6-C , 16-H ) :   0.9462 B(  7-C , 17-H ) :   0.9691 B(  7-C , 18-H ) :   0.9747
B(  7-C , 19-H ) :   0.9678

Dispersion correction           -0.005024793
FINAL SINGLE POINT ENERGY      -386.236193550610

DIPOLE MOMENT
-------------

Method             : SCF
Type of density    : Electron Density
Multiplicity       :   1
Irrep              :   0
Energy             :  -386.2428551087073174 Eh
Relativity type    :
Basis              : AO
                                X                 Y                 Z
Electronic contribution:      1.331848613       4.303731673      -0.916319592
Nuclear contribution   :     -1.075576213      -5.009237685       0.632444613
                        -----------------------------------------
Total Dipole Moment    :      0.256272400      -0.705506012      -0.283874978
                        -----------------------------------------
Magnitude (a.u.)       :      0.802495657
Magnitude (Debye)      :      2.039781855

Rotational constants in cm-1:             0.135823             0.033673             0.031562
Rotational constants in MHz :          4071.871300          1009.494499           946.198112

                             ****ORCA TERMINATED NORMALLY****
TOTAL RUN TIME: 0 days 0 hours 0 minutes 31 seconds 767 msec
