                         Program Version 6.0.0  -   RELEASE  -
|  1> ! r2scan-3c def2/J RI DEFGRID2 scfconv6 printgap
|  2> %output
|  3>     printlevel normal
|  4> end
|  5> %cpcm
|  6>     smd true
|  7>     smdsolvent "water"
|  8> end
|  9> * xyz 0 1
| 10> C -2.4784595245 -0.9755457104 0.9439626952
| 11> C -2.5538550578 0.0796050765 -0.1529297169
| 12> C -1.2892916847 0.0846776036 -1.0179035591
| 13> C -0.0946185595 0.5354043432 -0.2172602596
| 14> O -0.0329787923 1.5682954119 0.4185149219
| 15> O 0.9016591293 -0.3354554806 -0.2893287881
| 16> C 2.1238451529 -0.0354206232 0.4060727973
| 17> C 3.232600909 -0.8812515933 -0.1904238857
| 18> H -3.3937017815 -0.9793161117 1.5297528902
| 19> H -2.337019387 -1.9643993528 0.5144412667
| 20> H -1.6452597414 -0.7681287921 1.613068935
| 21> H -2.6730879466 1.0677329225 0.2955146068
| 22> H -3.4159987776 -0.1153869854 -0.7910628752
| 23> H -1.4157389521 0.7908255021 -1.8403084981
| 24> H -1.084575374 -0.9065819443 -1.4203231609
| 25> H 2.3254802865 1.0362270343 0.3067878275
| 26> H 1.9745854637 -0.2607556642 1.4669742068
| 27> H 2.9862022394 -1.9345343367 -0.0956918811
| 28> H 3.3589874609 -0.6442235414 -1.2428056842
| 29> H 4.1599306173 -0.6803341275 0.335738703
| 30> *
| 31>
| 32>                          ****END OF INPUT****

CARTESIAN COORDINATES (ANGSTROEM)
---------------------------------
  C     -2.478460   -0.975546    0.943963
  C     -2.553855    0.079605   -0.152930
  C     -1.289292    0.084678   -1.017904
  C     -0.094619    0.535404   -0.217260
  O     -0.032979    1.568295    0.418515
  O      0.901659   -0.335455   -0.289329
  C      2.123845   -0.035421    0.406073
  C      3.232601   -0.881252   -0.190424
  H     -3.393702   -0.979316    1.529753
  H     -2.337019   -1.964399    0.514441
  H     -1.645260   -0.768129    1.613069
  H     -2.673088    1.067733    0.295515
  H     -3.415999   -0.115387   -0.791063
  H     -1.415739    0.790826   -1.840308
  H     -1.084575   -0.906582   -1.420323
  H      2.325480    1.036227    0.306788
  H      1.974585   -0.260756    1.466974
  H      2.986202   -1.934534   -0.095692
  H      3.358987   -0.644224   -1.242806
  H      4.159931   -0.680334    0.335739

 Total Charge           Charge          ....    0
 Multiplicity           Mult            ....    1
 Number of Electrons    NEL             ....   64
 Basis Dimension        Dim             ....  222

ORBITAL ENERGIES
----------------

  NO   OCC          E(Eh)            E(eV)
   0   2.0000     -19.003342      -517.1072
   1   2.0000     -18.943152      -515.4694
   2   2.0000     -10.161957      -276.5209
   3   2.0000     -10.083458      -274.3849
   4   2.0000     -10.035053      -273.0677
   5   2.0000     -10.027876      -272.8724
   6   2.0000     -10.018776      -272.6247
   7   2.0000     -10.011468      -272.4259
   8   2.0000      -1.079446       -29.3732
   9   2.0000      -0.988434       -26.8967
  10   2.0000      -0.769351       -20.9351
  11   2.0000      -0.735587       -20.0164
  12   2.0000      -0.672084       -18.2883
  13   2.0000      -0.612075       -16.6554
  14   2.0000      -0.558841       -15.2068
  15   2.0000      -0.528242       -14.3742
  16   2.0000      -0.473800       -12.8928
  17   2.0000      -0.463860       -12.6223
  18   2.0000      -0.441843       -12.0232
  19   2.0000      -0.421932       -11.4814
  20   2.0000      -0.407273       -11.0825
  21   2.0000      -0.375803       -10.2261
  22   2.0000      -0.369097       -10.0436
  23   2.0000      -0.361829        -9.8459
  24   2.0000      -0.355948        -9.6858
  25   2.0000      -0.331846        -9.0300
  26   2.0000      -0.317530        -8.6404
  27   2.0000      -0.304679        -8.2907
  28   2.0000      -0.303769        -8.2660
  29   2.0000      -0.302951        -8.2437
  30   2.0000      -0.278310        -7.5732
  31   2.0000      -0.251635        -6.8473
  32   0.0000      -0.023363        -0.6357
  33   0.0000       0.076532         2.0825
  34   0.0000       0.104779         2.8512
  35   0.0000       0.115624         3.1463
  36   0.0000       0.130581         3.5533

MULLIKEN ATOMIC CHARGES
-----------------------
   0 C :   -0.529175
   1 C :   -0.224081
   2 C :   -0.314018
   3 C :    0.379010
   4 O :   -0.510583
   5 O :   -0.180117
   6 C :   -0.154256
   7 C :   -0.488995
   8 H :    0.161447
   9 H :    0.162189
  10 H :    0.161984
  11 H :    0.154517
  12 H :    0.163367
  13 H :    0.194257
  14 H :    0.179263
  15 H :    0.173103
  16 H :    0.173283
  17 H :    0.164434
  18 H :    0.165792
  19 H :    0.168577
Sum of atomic charges:   -0.0000000

LOEWDIN ATOMIC CHARGES
----------------------
   0 C :   -0.423822
   1 C :   -0.292916
   2 C :   -0.229467
   3 C :    0.362962
   4 O :   -0.496305
   5 O :   -0.599513
   6 C :    0.035672
   7 C :   -0.389797
   8 H :    0.156203
   9 H :    0.155822
  10 H :    0.156116
  11 H :    0.163376
  12 H :    0.160292
  13 H :    0.191861
  14 H :    0.184524
  15 H :    0.188050
  16 H :    0.184162
  17 H :    0.162451
  18 H :    0.162214
  19 H :    0.168115

  Mayer bond orders larger than 0.100000
B(  0-C ,  1-C ) :   0.8989 B(  0-C ,  8-H ) :   0.9657 B(  0-C ,  9-H ) :   0.9781
B(  0-C , 10-H ) :   0.9708 B(  1-C ,  2-C ) :   0.8768 B(  1-C , 11-H ) :   0.9714
B(  1-C , 12-H ) :   0.9614 B(  2-C ,  3-C ) :   0.9424 B(  2-C , 13-H ) :   0.9279
B(  2-C , 14-H ) :   0.9953 B(  3-C ,  4-O ) :   1.7515 B(  3-C ,  5-O ) :   1.0977
B(  5-O ,  6-C ) :   0.7826 B(  6-C ,  7-C ) :   0.9429 B(  6-C , 15-H ) :   0.9562
B(  6-C , 16-H ) :   0.9372 B(  7-C , 17-H ) :   0.9664 B(  7-C , 18-H ) :   0.9734
B(  7-C , 19-H ) :   0.9614

Dispersion correction           -0.005024793
FINAL SINGLE POINT ENERGY      -386.241675247588

DIPOLE MOMENT
-------------

Method             : SCF
Type of density    : Electron Density
Multiplicity       :   1
Irrep              :   0
Energy             :  -386.2483368056861082 Eh
Relativity type    :
Basis              : AO
                                X                 Y                 Z
Electronic contribution:      1.396366781       3.997373699      -1.074915583
Nuclear contribution   :     -1.075576213      -5.009237685       0.632444613
                        -----------------------------------------
Total Dipole Moment    :      0.320790567      -1.011863986      -0.442470970
                        -----------------------------------------
Magnitude (a.u.)       :      1.150024293
Magnitude (Debye)      :      2.923129447

Rotational constants in cm-1:             0.135823             0.033673             0.031562
Rotational constants in MHz :          4071.871300          1009.494499           946.198112

                             ****ORCA TERMINATED NORMALLY****
TOTAL RUN TIME: 0 days 0 hours 0 minutes 38 seconds 854 msec
