                         Program Version 6.0.0  -   RELEASE  -
|  1> ! pbe def2-sv(p) def2/J RI DEFGRID1 loosescf d4 GCP(DFT/SV(P)) printgap
|  2> %output
|  3>     printlevel normal
|  4> end
|  5> * xyz 0 1
|  6> C -4.528406141 -1.1124864286 -0.4140544625
|  7> C -3.7911778613 -2.2753768472 -0.2379912624
|  8> C -2.4279897909 -2.2045836783 -0.0185477728
|  9> C -1.7765206251 -0.9737662209 0.0259005111
| 10> C -2.52110177 0.1971453112 -0.1536885045
| 11> C -3.8955460771 0.1152166881 -0.3711052247
| 12> C -1.870759751 1.5125257843 -0.1161759996
| 13> O -2.5136425897 2.5512902167 -0.2567059188
| 14> C -0.4118082787 1.5279414162 0.0897277054
| 15> C 0.2053390525 2.7670931722 0.0812596238
| 16> C 1.5821561218 2.8680799589 0.2598698203
| 17> C 2.3363519261 1.7410785193 0.4469146623
| 18> C 1.7503528178 0.4508550147 0.4723377389
| 19> C 0.3369076307 0.3430278379 0.2838800687
| 20> C -0.3200264428 -0.9471651687 0.2722647028
| 21> O 0.27542896 -2.0227816141 0.4540129668
| 22> N 2.4945628224 -0.6396503775 0.6988121975
| 23> C 3.9324318798 -0.6907748352 0.761365481
| 24> C 4.5840191633 -0.6332148795 -0.6274688743
| 25> O 4.29164095 -1.8394347639 -1.3033989318
| 26> H -5.5922481825 -1.1648882094 -0.5839690019
| 27> H -4.2802245149 -3.2363090575 -0.2708430867
| 28> H -1.8370983491 -3.097395789 0.1233209469
| 29> H -4.4433908148 1.036376516 -0.5045150254
| 30> H -0.4064294947 3.6432452662 -0.0688926659
| 31> H 2.0528189403 3.8385932595 0.2482430523
| 32> H 3.4005187374 1.8358724872 0.5809374259
| 33> H 2.0035341188 -1.52615717 0.6085818187
| 34> H 4.2029294938 -1.6421707374 1.2203936127
| 35> H 4.3186252078 0.1216270102 1.3790841036
| 36> H 5.6680880434 -0.5154969986 -0.5044814123
| 37> H 4.1885741037 0.2241822018 -1.1869063703
| 38> H 4.684133209 -1.8225351506 -2.1853171788
| 39> *
| 40>
| 41>                          ****END OF INPUT****

CARTESIAN COORDINATES (ANGSTROEM)
---------------------------------
  C     -4.528406   -1.112486   -0.414054
  C     -3.791178   -2.275377   -0.237991
  C     -2.427990   -2.204584   -0.018548
  C     -1.776521   -0.973766    0.025901
  C     -2.521102    0.197145   -0.153689
  C     -3.895546    0.115217   -0.371105
  C     -1.870760    1.512526   -0.116176
  O     -2.513643    2.551290   -0.256706
  C     -0.411808    1.527941    0.089728
  C      0.205339    2.767093    0.081260
  C      1.582156    2.868080    0.259870
  C      2.336352    1.741079    0.446915
  C      1.750353    0.450855    0.472338
  C      0.336908    0.343028    0.283880
  C     -0.320026   -0.947165    0.272265
  O      0.275429   -2.022782    0.454013
  N      2.494563   -0.639650    0.698812
  C      3.932432   -0.690775    0.761365
  C      4.584019   -0.633215   -0.627469
  O      4.291641   -1.839435   -1.303399
  H     -5.592248   -1.164888   -0.583969
  H     -4.280225   -3.236309   -0.270843
  H     -1.837098   -3.097396    0.123321
  H     -4.443391    1.036377   -0.504515
  H     -0.406429    3.643245   -0.068893
  H      2.052819    3.838593    0.248243
  H      3.400519    1.835872    0.580937
  H      2.003534   -1.526157    0.608582
  H      4.202929   -1.642171    1.220394
  H      4.318625    0.121627    1.379084
  H      5.668088   -0.515497   -0.504481
  H      4.188574    0.224182   -1.186906
  H      4.684133   -1.822535   -2.185317

 Total Charge           Charge          ....    0
 Multiplicity           Mult            ....    1
 Number of Electrons    NEL             ....  140
 Basis Dimension        Dim             ....  306

ORBITAL ENERGIES
----------------

  NO   OCC          E(Eh)            E(eV)
   0   2.0000     -18.754821      -510.3446
   1   2.0000     -18.744238      -510.0566
   2   2.0000     -18.739822      -509.9365
   3   2.0000     -14.013607      -381.3296
   4   2.0000      -9.973593      -271.3953
   5   2.0000      -9.971476      -271.3377
   6   2.0000      -9.955922      -270.9144
   7   2.0000      -9.946198      -270.6498
   8   2.0000      -9.935832      -270.3677
   9   2.0000      -9.910282      -269.6725
  10   2.0000      -9.909391      -269.6482
  11   2.0000      -9.908756      -269.6309
  12   2.0000      -9.908250      -269.6172
  13   2.0000      -9.907517      -269.5972
  14   2.0000      -9.905991      -269.5557
  15   2.0000      -9.905300      -269.5369
  16   2.0000      -9.904901      -269.5261
  17   2.0000      -9.902175      -269.4519
  18   2.0000      -9.900961      -269.4188
  19   2.0000      -9.892544      -269.1898
  20   2.0000      -0.936880       -25.4938
  21   2.0000      -0.932367       -25.3710
  22   2.0000      -0.931418       -25.3452
  23   2.0000      -0.868882       -23.6435
  24   2.0000      -0.793924       -21.6038
  25   2.0000      -0.779059       -21.1993
  26   2.0000      -0.722362       -19.6565
  27   2.0000      -0.701978       -19.1018
  28   2.0000      -0.684979       -18.6392
  29   2.0000      -0.681001       -18.5310
  30   2.0000      -0.655482       -17.8366
  31   2.0000      -0.606373       -16.5002
  32   2.0000      -0.593358       -16.1461
  33   2.0000      -0.575877       -15.6704
  34   2.0000      -0.567210       -15.4346
  35   2.0000      -0.533007       -14.5039
  36   2.0000      -0.520986       -14.1767
  37   2.0000      -0.495774       -13.4907
  38   2.0000      -0.488302       -13.2874
  39   2.0000      -0.478160       -13.0114
  40   2.0000      -0.465384       -12.6637
  41   2.0000      -0.441668       -12.0184
  42   2.0000      -0.431906       -11.7528
  43   2.0000      -0.426482       -11.6052
  44   2.0000      -0.418336       -11.3835
  45   2.0000      -0.411727       -11.2037
  46   2.0000      -0.404008       -10.9936
  47   2.0000      -0.393957       -10.7201
  48   2.0000      -0.385479       -10.4894
  49   2.0000      -0.383258       -10.4290
  50   2.0000      -0.379324       -10.3219
  51   2.0000      -0.368694       -10.0327
  52   2.0000      -0.363174        -9.8825
  53   2.0000      -0.355204        -9.6656
  54   2.0000      -0.353418        -9.6170
  55   2.0000      -0.346662        -9.4331
  56   2.0000      -0.335811        -9.1379
  57   2.0000      -0.328357        -8.9350
  58   2.0000      -0.319545        -8.6953
  59   2.0000      -0.313966        -8.5435
  60   2.0000      -0.305332        -8.3085
  61   2.0000      -0.299550        -8.1512
  62   2.0000      -0.275046        -7.4844
  63   2.0000      -0.246437        -6.7059
  64   2.0000      -0.239777        -6.5247
  65   2.0000      -0.237845        -6.4721
  66   2.0000      -0.227426        -6.1886
  67   2.0000      -0.213689        -5.8148
  68   2.0000      -0.202180        -5.5016
  69   2.0000      -0.185717        -5.0536
  70   0.0000      -0.122997        -3.3469
  71   0.0000      -0.075650        -2.0585
  72   0.0000      -0.049049        -1.3347
  73   0.0000      -0.028788        -0.7834
  74   0.0000       0.017783         0.4839

MULLIKEN ATOMIC CHARGES
-----------------------
   0 C :   -0.021494
   1 C :   -0.016564
   2 C :   -0.133604
   3 C :    0.049102
   4 C :    0.038287
   5 C :   -0.126394
   6 C :    0.084647
   7 O :   -0.151770
   8 C :    0.017940
   9 C :   -0.140131
  10 C :   -0.009756
  11 C :   -0.157663
  12 C :    0.077267
  13 C :    0.050482
  14 C :    0.072689
  15 O :   -0.212591
  16 N :   -0.221706
  17 C :   -0.072786
  18 C :   -0.004435
  19 O :   -0.440572
  20 H :    0.061522
  21 H :    0.061458
  22 H :    0.059632
  23 H :    0.057335
  24 H :    0.054221
  25 H :    0.057087
  26 H :    0.033150
  27 H :    0.249340
  28 H :    0.108267
  29 H :    0.107029
  30 H :    0.076938
  31 H :    0.088573
  32 H :    0.304498
Sum of atomic charges:    0.0000000

LOEWDIN ATOMIC CHARGES
----------------------
   0 C :   -0.108703
   1 C :   -0.105368
   2 C :   -0.088513
   3 C :   -0.044179
   4 C :   -0.053972
   5 C :   -0.083676
   6 C :    0.058685
   7 O :   -0.132396
   8 C :   -0.044793
   9 C :   -0.113121
  10 C :   -0.098180
  11 C :   -0.150364
  12 C :    0.035229
  13 C :   -0.088971
  14 C :    0.056424
  15 O :   -0.170991
  16 N :   -0.121913
  17 C :   -0.168301
  18 C :   -0.132597
  19 O :   -0.348291
  20 H :    0.128242
  21 H :    0.128237
  22 H :    0.135392
  23 H :    0.135399
  24 H :    0.134497
  25 H :    0.128803
  26 H :    0.124673
  27 H :    0.244535
  28 H :    0.132396
  29 H :    0.121444
  30 H :    0.098649
  31 H :    0.102264
  32 H :    0.289458

  Mayer bond orders larger than 0.100000
B(  0-C ,  1-C ) :   1.3266 B(  0-C ,  5-C ) :   1.3370 B(  0-C , 20-H ) :   0.9669
B(  1-C ,  2-C ) :   1.3354 B(  1-C , 21-H ) :   0.9666 B(  2-C ,  3-C ) :   1.3831
B(  2-C , 22-H ) :   0.9540 B(  3-C ,  4-C ) :   1.3352 B(  3-C , 14-C ) :   0.9754
B(  4-C ,  5-C ) :   1.3778 B(  4-C ,  6-C ) :   0.9570 B(  5-C , 23-H ) :   0.9569
B(  6-C ,  7-O ) :   2.1547 B(  6-C ,  8-C ) :   0.9494 B(  8-C ,  9-C ) :   1.4249
B(  8-C , 13-C ) :   1.3040 B(  9-C , 10-C ) :   1.2329 B(  9-C , 24-H ) :   0.9566
B( 10-C , 11-C ) :   1.3853 B( 10-C , 25-H ) :   0.9659 B( 11-C , 12-C ) :   1.2396
B( 11-C , 26-H ) :   0.9509 B( 12-C , 13-C ) :   1.2179 B( 12-C , 16-N ) :   1.3962
B( 13-C , 14-C ) :   1.0213 B( 14-C , 15-O ) :   1.9756 B( 15-O , 27-H ) :   0.1357
B( 16-N , 17-C ) :   1.0490 B( 16-N , 27-H ) :   0.7666 B( 17-C , 18-C ) :   1.1048
B( 17-C , 28-H ) :   0.9174 B( 17-C , 29-H ) :   0.9076 B( 18-C , 19-O ) :   1.0850
B( 18-C , 30-H ) :   0.9195 B( 18-C , 31-H ) :   0.9123 B( 19-O , 32-H ) :   0.8505

Dispersion correction           -0.046670351
FINAL SINGLE POINT ENERGY      -896.122438316660

DIPOLE MOMENT
-------------

Method             : SCF
Type of density    : Electron Density
Multiplicity       :   1
Irrep              :   0
Energy             :  -896.2189488677920508 Eh
Relativity type    :
Basis              : AO
                                X                 Y                 Z
Electronic contribution:    -11.729577550       1.970136586       0.761733496
Nuclear contribution   :     13.140828576      -2.185464209      -1.086149950
                        -----------------------------------------
Total Dipole Moment    :      1.411251025      -0.215327622      -0.324416454
                        -----------------------------------------
Magnitude (a.u.)       :      1.463981379
Magnitude (Debye)      :      3.721144941

Rotational constants in cm-1:             0.020525             0.007797             0.005933
Rotational constants in MHz :           615.327452           233.748403           177.864031

                             ****ORCA TERMINATED NORMALLY****
TOTAL RUN TIME: 0 days 0 hours 0 minutes 34 seconds 203 msec
