                         Program Version 6.0.0  -   RELEASE  -
|  1> ! r2scan-3c def2/J RI DEFGRID2 scfconv6 printgap
|  2> %output
|  3>     printlevel normal
|  4> end
|  5> %cpcm
|  6>     smd true
|  7>     smdsolvent "water"
|  8> end
|  9> * xyz 0 1
| 10> C -1.963351635 0.9609295292 -0.3907201103
| 11> C -1.5546767077 -0.2665021901 0.4165471258
| 12> C -0.317577605 -0.9403856701 -0.1633949359
| 13> N 0.8932871415 -0.1399639386 0.008538784
| 14> O 0.9585182288 0.6457128094 0.9286221806
| 15> O 1.7982429678 -0.3266624787 -0.7833338294
| 16> H -2.147120542 0.6966063849 -1.4292643173
| 17> H -2.8713459426 1.3930781697 0.0193509887
| 18> H -1.1853004638 1.7207991555 -0.3570923319
| 19> H -2.3667227927 -0.9925922876 0.415295164
| 20> H -1.3552213415 0.0245309159 1.4484805166
| 21> H -0.1255523445 -1.8879589435 0.3492578211
| 22> H -0.4157173668 -1.1430077378 -1.2316250249
| 23> *
| 24>
| 25>                          ****END OF INPUT****

CARTESIAN COORDINATES (ANGSTROEM)
---------------------------------
  C     -1.963352    0.960930   -0.390720
  C     -1.554677   -0.266502    0.416547
  C     -0.317578   -0.940386   -0.163395
  N      0.893287   -0.139964    0.008539
  O      0.958518    0.645713    0.928622
  O      1.798243   -0.326662   -0.783334
  H     -2.147121    0.696606   -1.429264
  H     -2.871346    1.393078    0.019351
  H     -1.185300    1.720799   -0.357092
  H     -2.366723   -0.992592    0.415295
  H     -1.355221    0.024531    1.448481
  H     -0.125552   -1.887959    0.349258
  H     -0.415717   -1.143008   -1.231625

 Total Charge           Charge          ....    0
 Multiplicity           Mult            ....    1
 Number of Electrons    NEL             ....   48
 Basis Dimension        Dim             ....  164

ORBITAL ENERGIES
----------------

  NO   OCC          E(Eh)            E(eV)
   0   2.0000     -18.996960      -516.9336
   1   2.0000     -18.994491      -516.8664
   2   2.0000     -14.398528      -391.8039
   3   2.0000     -10.080319      -274.2994
   4   2.0000     -10.034639      -273.0564
   5   2.0000     -10.014022      -272.4954
   6   2.0000      -1.215921       -33.0869
   7   2.0000      -1.038045       -28.2467
   8   2.0000      -0.804827       -21.9005
   9   2.0000      -0.712243       -19.3811
  10   2.0000      -0.610007       -16.5991
  11   2.0000      -0.556248       -15.1363
  12   2.0000      -0.527988       -14.3673
  13   2.0000      -0.510448       -13.8900
  14   2.0000      -0.494701       -13.4615
  15   2.0000      -0.416883       -11.3440
  16   2.0000      -0.408323       -11.1110
  17   2.0000      -0.377757       -10.2793
  18   2.0000      -0.326725        -8.8906
  19   2.0000      -0.320715        -8.7271
  20   2.0000      -0.312696        -8.5089
  21   2.0000      -0.303802        -8.2669
  22   2.0000      -0.286877        -7.8063
  23   2.0000      -0.269169        -7.3245
  24   0.0000      -0.109110        -2.9690
  25   0.0000       0.088427         2.4062
  26   0.0000       0.107929         2.9369
  27   0.0000       0.130234         3.5439
  28   0.0000       0.133539         3.6338

MULLIKEN ATOMIC CHARGES
-----------------------
   0 C :   -0.528790
   1 C :   -0.181119
   2 C :   -0.317667
   3 N :    0.276826
   4 O :   -0.251389
   5 O :   -0.256466
   6 H :    0.158600
   7 H :    0.165240
   8 H :    0.165599
   9 H :    0.172570
  10 H :    0.160537
  11 H :    0.220292
  12 H :    0.215768
Sum of atomic charges:   -0.0000000

LOEWDIN ATOMIC CHARGES
----------------------
   0 C :   -0.420774
   1 C :   -0.271053
   2 C :    0.038778
   3 N :   -0.526430
   4 O :   -0.041800
   5 O :   -0.044483
   6 H :    0.157535
   7 H :    0.158579
   8 H :    0.158362
   9 H :    0.170922
  10 H :    0.175266
  11 H :    0.228108
  12 H :    0.216989

  Mayer bond orders larger than 0.100000
B(  0-C ,  1-C ) :   0.9143 B(  0-C ,  6-H ) :   0.9704 B(  0-C ,  7-H ) :   0.9667
B(  0-C ,  8-H ) :   0.9815 B(  1-C ,  2-C ) :   0.9209 B(  1-C ,  9-H ) :   0.9405
B(  1-C , 10-H ) :   0.9612 B(  2-C ,  3-N ) :   0.9142 B(  2-C , 11-H ) :   0.8896
B(  2-C , 12-H ) :   0.9452 B(  3-N ,  4-O ) :   1.8191 B(  3-N ,  5-O ) :   1.7885
B(  4-O ,  5-O ) :   0.2655

Dispersion correction           -0.002930331
FINAL SINGLE POINT ENERGY      -323.585895090413

DIPOLE MOMENT
-------------

Method             : SCF
Type of density    : Electron Density
Multiplicity       :   1
Irrep              :   0
Energy             :  -323.5955984480882535 Eh
Relativity type    :
Basis              : AO
                                X                 Y                 Z
Electronic contribution:      8.086250792      -0.774664809       0.628394697
Nuclear contribution   :     -9.774000846      -0.172921765      -0.734822704
                        -----------------------------------------
Total Dipole Moment    :     -1.687750055      -0.947586574      -0.106428008
                        -----------------------------------------
Magnitude (a.u.)       :      1.938491032
Magnitude (Debye)      :      4.927252629

Rotational constants in cm-1:             0.229790             0.081087             0.075177
Rotational constants in MHz :          6888.939689          2430.935897          2253.739298

                             ****ORCA TERMINATED NORMALLY****
TOTAL RUN TIME: 0 days 0 hours 0 minutes 29 seconds 58 msec
