                         Program Version 6.0.0  -   RELEASE  -
|  1> ! r2scan-3c def2/J RI DEFGRID2 scfconv6 printgap
|  2> %output
|  3>     printlevel normal
|  4> end
|  5> * xyz 0 1
|  6> C -1.03944e-05 -0.1242293146 -1.43e-05
|  7> C -1.2432674457 0.7468294035 -0.1129308848
|  8> Cl -2.7069477365 -0.2878758591 -0.2477151081
|  9> C 1.2432348015 0.7468235709 0.1130899046
| 10> Cl 2.70696678 -0.2878455561 0.2476607113
| 11> H -0.0799935939 -0.7650599703 0.8790881135
| 12> H 0.0799190158 -0.764737934 -0.8793174927
| 13> H -1.3840071143 1.3646993787 0.7715539354
| 14> H -1.2211056217 1.3661600778 -1.0073797876
| 15> H 1.2211522097 1.3660772132 1.0076072185
| 16> H 1.3838781285 1.3648676361 -0.7713631486
| 17> *
| 18>
| 19>                          ****END OF INPUT****

CARTESIAN COORDINATES (ANGSTROEM)
---------------------------------
  C     -0.000010   -0.124229   -0.000014
  C     -1.243267    0.746829   -0.112931
  Cl    -2.706948   -0.287876   -0.247715
  C      1.243235    0.746824    0.113090
  Cl     2.706967   -0.287846    0.247661
  H     -0.079994   -0.765060    0.879088
  H      0.079919   -0.764738   -0.879317
  H     -1.384007    1.364699    0.771554
  H     -1.221106    1.366160   -1.007380
  H      1.221152    1.366077    1.007607
  H      1.383878    1.364868   -0.771363

 Total Charge           Charge          ....    0
 Multiplicity           Mult            ....    1
 Number of Electrons    NEL             ....   58
 Basis Dimension        Dim             ....  141

ORBITAL ENERGIES
----------------

  NO   OCC          E(Eh)            E(eV)
   0   2.0000    -101.210183     -2754.0691
   1   2.0000    -101.210181     -2754.0690
   2   2.0000     -10.108310      -275.0611
   3   2.0000     -10.108302      -275.0609
   4   2.0000     -10.061431      -273.7855
   5   2.0000      -9.366036      -254.8628
   6   2.0000      -9.366034      -254.8627
   7   2.0000      -7.112440      -193.5393
   8   2.0000      -7.112440      -193.5393
   9   2.0000      -7.102001      -193.2553
  10   2.0000      -7.102001      -193.2553
  11   2.0000      -7.101995      -193.2551
  12   2.0000      -7.101995      -193.2551
  13   2.0000      -0.844646       -22.9840
  14   2.0000      -0.820613       -22.3300
  15   2.0000      -0.735514       -20.0144
  16   2.0000      -0.635152       -17.2834
  17   2.0000      -0.586552       -15.9609
  18   2.0000      -0.483578       -13.1588
  19   2.0000      -0.429560       -11.6889
  20   2.0000      -0.429016       -11.6741
  21   2.0000      -0.424559       -11.5528
  22   2.0000      -0.368585       -10.0297
  23   2.0000      -0.362673        -9.8688
  24   2.0000      -0.346484        -9.4283
  25   2.0000      -0.286443        -7.7945
  26   2.0000      -0.277674        -7.5559
  27   2.0000      -0.273345        -7.4381
  28   2.0000      -0.267488        -7.2787
  29   0.0000      -0.029338        -0.7983
  30   0.0000       0.029919         0.8141
  31   0.0000       0.082897         2.2557
  32   0.0000       0.088604         2.4110
  33   0.0000       0.120141         3.2692

MULLIKEN ATOMIC CHARGES
-----------------------
   0 C :   -0.289854
   1 C :   -0.154986
   2 Cl:   -0.185902
   3 C :   -0.154989
   4 Cl:   -0.185897
   5 H :    0.168055
   6 H :    0.168057
   7 H :    0.158931
   8 H :    0.158829
   9 H :    0.158835
  10 H :    0.158921
Sum of atomic charges:   -0.0000000

LOEWDIN ATOMIC CHARGES
----------------------
   0 C :   -0.349523
   1 C :   -0.321808
   2 Cl:    0.010746
   3 C :   -0.321815
   4 Cl:    0.010746
   5 H :    0.168538
   6 H :    0.168535
   7 H :    0.158642
   8 H :    0.158646
   9 H :    0.158647
  10 H :    0.158647

  Mayer bond orders larger than 0.100000
B(  0-C ,  1-C ) :   0.9296 B(  0-C ,  3-C ) :   0.9296 B(  0-C ,  5-H ) :   0.9593
B(  0-C ,  6-H ) :   0.9593 B(  1-C ,  2-Cl) :   0.9829 B(  1-C ,  7-H ) :   0.9569
B(  1-C ,  8-H ) :   0.9569 B(  3-C ,  4-Cl) :   0.9829 B(  3-C ,  9-H ) :   0.9569
B(  3-C , 10-H ) :   0.9569

Dispersion correction           -0.002753041
FINAL SINGLE POINT ENERGY     -1038.247510799001

DIPOLE MOMENT
-------------

Method             : SCF
Type of density    : Electron Density
Multiplicity       :   1
Irrep              :   0
Energy             : -1038.2545390280997708 Eh
Relativity type    :
Basis              : AO
                                X                 Y                 Z
Electronic contribution:      0.000144898      -3.674402842      -0.000183891
Nuclear contribution   :     -0.000172831       4.461638685       0.000250174
                        -----------------------------------------
Total Dipole Moment    :     -0.000027932       0.787235844       0.000066283
                        -----------------------------------------
Magnitude (a.u.)       :      0.787235847
Magnitude (Debye)      :      2.000994501

Rotational constants in cm-1:             0.511704             0.029418             0.028265
Rotational constants in MHz :         15340.496986           881.921126           847.366328

                             ****ORCA TERMINATED NORMALLY****
TOTAL RUN TIME: 0 days 0 hours 0 minutes 16 seconds 121 msec
