                         Program Version 6.0.0  -   RELEASE  -
|  1> ! r2scan-3c def2/J RI DEFGRID2 scfconv6 printgap
|  2> %output
|  3>     printlevel normal
|  4> end
|  5> %cpcm
|  6>     smd true
|  7>     smdsolvent "water"
|  8> end
|  9> * xyz 0 1
| 10> C -1.03944e-05 -0.1242293146 -1.43e-05
| 11> C -1.2432674457 0.7468294035 -0.1129308848
| 12> Cl -2.7069477365 -0.2878758591 -0.2477151081
| 13> C 1.2432348015 0.7468235709 0.1130899046
| 14> Cl 2.70696678 -0.2878455561 0.2476607113
| 15> H -0.0799935939 -0.7650599703 0.8790881135
| 16> H 0.0799190158 -0.764737934 -0.8793174927
| 17> H -1.3840071143 1.3646993787 0.7715539354
| 18> H -1.2211056217 1.3661600778 -1.0073797876
| 19> H 1.2211522097 1.3660772132 1.0076072185
| 20> H 1.3838781285 1.3648676361 -0.7713631486
| 21> *
| 22>
| 23>                          ****END OF INPUT****

CARTESIAN COORDINATES (ANGSTROEM)
---------------------------------
  C     -0.000010   -0.124229   -0.000014
  C     -1.243267    0.746829   -0.112931
  Cl    -2.706948   -0.287876   -0.247715
  C      1.243235    0.746824    0.113090
  Cl     2.706967   -0.287846    0.247661
  H     -0.079994   -0.765060    0.879088
  H      0.079919   -0.764738   -0.879317
  H     -1.384007    1.364699    0.771554
  H     -1.221106    1.366160   -1.007380
  H      1.221152    1.366077    1.007607
  H      1.383878    1.364868   -0.771363

 Total Charge           Charge          ....    0
 Multiplicity           Mult            ....    1
 Number of Electrons    NEL             ....   58
 Basis Dimension        Dim             ....  141

ORBITAL ENERGIES
----------------

  NO   OCC          E(Eh)            E(eV)
   0   2.0000    -101.203881     -2753.8976
   1   2.0000    -101.203879     -2753.8976
   2   2.0000     -10.087509      -274.4951
   3   2.0000     -10.087501      -274.4949
   4   2.0000     -10.041629      -273.2466
   5   2.0000      -9.360044      -254.6997
   6   2.0000      -9.360042      -254.6997
   7   2.0000      -7.106015      -193.3645
   8   2.0000      -7.106014      -193.3645
   9   2.0000      -7.096212      -193.0977
  10   2.0000      -7.096211      -193.0977
  11   2.0000      -7.096191      -193.0972
  12   2.0000      -7.096190      -193.0971
  13   2.0000      -0.831027       -22.6134
  14   2.0000      -0.811273       -22.0759
  15   2.0000      -0.721298       -19.6275
  16   2.0000      -0.618142       -16.8205
  17   2.0000      -0.565626       -15.3915
  18   2.0000      -0.460843       -12.5402
  19   2.0000      -0.416616       -11.3367
  20   2.0000      -0.411490       -11.1972
  21   2.0000      -0.402970       -10.9654
  22   2.0000      -0.357482        -9.7276
  23   2.0000      -0.344478        -9.3737
  24   2.0000      -0.326105        -8.8738
  25   2.0000      -0.281131        -7.6500
  26   2.0000      -0.270325        -7.3559
  27   2.0000      -0.266628        -7.2553
  28   2.0000      -0.261388        -7.1127
  29   0.0000      -0.015668        -0.4264
  30   0.0000       0.041012         1.1160
  31   0.0000       0.105241         2.8638
  32   0.0000       0.106925         2.9096
  33   0.0000       0.147168         4.0046

MULLIKEN ATOMIC CHARGES
-----------------------
   0 C :   -0.294633
   1 C :   -0.166311
   2 Cl:   -0.238213
   3 C :   -0.166320
   4 Cl:   -0.238209
   5 H :    0.174406
   6 H :    0.174412
   7 H :    0.188808
   8 H :    0.188626
   9 H :    0.188630
  10 H :    0.188803
Sum of atomic charges:   -0.0000000

LOEWDIN ATOMIC CHARGES
----------------------
   0 C :   -0.348949
   1 C :   -0.311188
   2 Cl:   -0.023923
   3 C :   -0.311197
   4 Cl:   -0.023924
   5 H :    0.169061
   6 H :    0.169060
   7 H :    0.170282
   8 H :    0.170244
   9 H :    0.170245
  10 H :    0.170291

  Mayer bond orders larger than 0.100000
B(  0-C ,  1-C ) :   0.9350 B(  0-C ,  3-C ) :   0.9350 B(  0-C ,  5-H ) :   0.9590
B(  0-C ,  6-H ) :   0.9590 B(  1-C ,  2-Cl) :   0.9399 B(  1-C ,  7-H ) :   0.9504
B(  1-C ,  8-H ) :   0.9505 B(  3-C ,  4-Cl) :   0.9399 B(  3-C ,  9-H ) :   0.9505
B(  3-C , 10-H ) :   0.9504

Dispersion correction           -0.002753041
FINAL SINGLE POINT ENERGY     -1038.254180793611

DIPOLE MOMENT
-------------

Method             : SCF
Type of density    : Electron Density
Multiplicity       :   1
Irrep              :   0
Energy             : -1038.2612090227096360 Eh
Relativity type    :
Basis              : AO
                                X                 Y                 Z
Electronic contribution:      0.000136731      -3.322753475      -0.000173890
Nuclear contribution   :     -0.000172831       4.461638685       0.000250174
                        -----------------------------------------
Total Dipole Moment    :     -0.000036100       1.138885210       0.000076285
                        -----------------------------------------
Magnitude (a.u.)       :      1.138885213
Magnitude (Debye)      :      2.894816158

Rotational constants in cm-1:             0.511704             0.029418             0.028265
Rotational constants in MHz :         15340.496986           881.921126           847.366328

                             ****ORCA TERMINATED NORMALLY****
TOTAL RUN TIME: 0 days 0 hours 0 minutes 21 seconds 857 msec
