                         Program Version 6.0.0  -   RELEASE  -
|  1> ! pbe def2-sv(p) def2/J RI DEFGRID1 loosescf d4 GCP(DFT/SV(P)) printgap
|  2> %output
|  3>     printlevel normal
|  4> end
|  5> * xyz 0 1
|  6> C -3.6665601903 -0.3886054335 0.4155400338
|  7> C -2.389127099 0.115525945 -0.2433119663
|  8> C -1.1509931581 -0.5128539827 0.3900109485
|  9> C 0.1279915983 -0.0023343219 -0.219438458
| 10> O 0.2105172652 0.9008210097 -1.0242385116
| 11> O 1.177879433 -0.6793662321 0.2374125966
| 12> C 2.4884994538 -0.2976526586 -0.2137162115
| 13> C 3.0635830164 0.8142456546 0.6503493012
| 14> H -3.7471912184 -1.4679254378 0.313514028
| 15> H -3.6731730988 -0.1405347442 1.4739391154
| 16> H -4.53585407 0.0671165975 -0.0501362072
| 17> H -2.3226279259 1.2010783611 -0.1513069467
| 18> H -2.4021043404 -0.1172328713 -1.3096660175
| 19> H -1.1642728476 -1.5990692377 0.2869281451
| 20> H -1.1143981538 -0.2894126347 1.4586845669
| 21> H 3.0818262533 -1.2090337185 -0.1347707156
| 22> H 2.4188699109 0.0222259866 -1.2578688467
| 23> H 3.0704791289 0.5109015831 1.6937231722
| 24> H 4.0784309688 1.0288769139 0.3321627489
| 25> H 2.4629621972 1.7151467364 0.5464687523
| 26> *
| 27>
| 28>                          ****END OF INPUT****

CARTESIAN COORDINATES (ANGSTROEM)
---------------------------------
  C     -3.666560   -0.388605    0.415540
  C     -2.389127    0.115526   -0.243312
  C     -1.150993   -0.512854    0.390011
  C      0.127992   -0.002334   -0.219438
  O      0.210517    0.900821   -1.024239
  O      1.177879   -0.679366    0.237413
  C      2.488499   -0.297653   -0.213716
  C      3.063583    0.814246    0.650349
  H     -3.747191   -1.467925    0.313514
  H     -3.673173   -0.140535    1.473939
  H     -4.535854    0.067117   -0.050136
  H     -2.322628    1.201078   -0.151307
  H     -2.402104   -0.117233   -1.309666
  H     -1.164273   -1.599069    0.286928
  H     -1.114398   -0.289413    1.458685
  H      3.081826   -1.209034   -0.134771
  H      2.418870    0.022226   -1.257869
  H      3.070479    0.510902    1.693723
  H      4.078431    1.028877    0.332163
  H      2.462962    1.715147    0.546469

 Total Charge           Charge          ....    0
 Multiplicity           Mult            ....    1
 Number of Electrons    NEL             ....   64
 Basis Dimension        Dim             ....  136

ORBITAL ENERGIES
----------------

  NO   OCC          E(Eh)            E(eV)
   0   2.0000     -18.794721      -511.4304
   1   2.0000     -18.732893      -509.7479
   2   2.0000     -10.005198      -272.2553
   3   2.0000      -9.945409      -270.6283
   4   2.0000      -9.897677      -269.3295
   5   2.0000      -9.886277      -269.0193
   6   2.0000      -9.885780      -269.0058
   7   2.0000      -9.876302      -268.7478
   8   2.0000      -1.002193       -27.2711
   9   2.0000      -0.909088       -24.7375
  10   2.0000      -0.725057       -19.7298
  11   2.0000      -0.696525       -18.9534
  12   2.0000      -0.638959       -17.3870
  13   2.0000      -0.587767       -15.9940
  14   2.0000      -0.528040       -14.3687
  15   2.0000      -0.491567       -13.3762
  16   2.0000      -0.452772       -12.3205
  17   2.0000      -0.438994       -11.9456
  18   2.0000      -0.417400       -11.3580
  19   2.0000      -0.401841       -10.9346
  20   2.0000      -0.391540       -10.6544
  21   2.0000      -0.369077       -10.0431
  22   2.0000      -0.363652        -9.8955
  23   2.0000      -0.349601        -9.5131
  24   2.0000      -0.336861        -9.1665
  25   2.0000      -0.322435        -8.7739
  26   2.0000      -0.309618        -8.4251
  27   2.0000      -0.300323        -8.1722
  28   2.0000      -0.291565        -7.9339
  29   2.0000      -0.287839        -7.8325
  30   2.0000      -0.254386        -6.9222
  31   2.0000      -0.218872        -5.9558
  32   0.0000      -0.017992        -0.4896
  33   0.0000       0.036611         0.9962
  34   0.0000       0.053209         1.4479
  35   0.0000       0.079553         2.1647
  36   0.0000       0.081857         2.2275

MULLIKEN ATOMIC CHARGES
-----------------------
   0 C :   -0.253008
   1 C :   -0.197690
   2 C :   -0.182613
   3 C :    0.134501
   4 O :   -0.209412
   5 O :   -0.242885
   6 C :   -0.010687
   7 C :   -0.303764
   8 H :    0.095614
   9 H :    0.095296
  10 H :    0.105371
  11 H :    0.100207
  12 H :    0.096977
  13 H :    0.106660
  14 H :    0.109451
  15 H :    0.100137
  16 H :    0.106957
  17 H :    0.112178
  18 H :    0.111476
  19 H :    0.125234
Sum of atomic charges:   -0.0000000

LOEWDIN ATOMIC CHARGES
----------------------
   0 C :   -0.339496
   1 C :   -0.230542
   2 C :   -0.251409
   3 C :    0.039807
   4 O :   -0.167398
   5 O :   -0.073368
   6 C :   -0.112841
   7 C :   -0.356478
   8 H :    0.116347
   9 H :    0.116330
  10 H :    0.120967
  11 H :    0.122468
  12 H :    0.121145
  13 H :    0.136647
  14 H :    0.139565
  15 H :    0.116233
  16 H :    0.118682
  17 H :    0.123781
  18 H :    0.129759
  19 H :    0.129800

  Mayer bond orders larger than 0.100000
B(  0-C ,  1-C ) :   1.1535 B(  0-C ,  8-H ) :   0.9531 B(  0-C ,  9-H ) :   0.9536
B(  0-C , 10-H ) :   0.9541 B(  1-C ,  2-C ) :   1.1322 B(  1-C , 11-H ) :   0.9249
B(  1-C , 12-H ) :   0.9298 B(  2-C ,  3-C ) :   1.0173 B(  2-C , 13-H ) :   0.9002
B(  2-C , 14-H ) :   0.8952 B(  3-C ,  4-O ) :   2.0397 B(  3-C ,  5-O ) :   1.2123
B(  5-O ,  6-C ) :   0.9242 B(  6-C ,  7-C ) :   1.1734 B(  6-C , 15-H ) :   0.9376
B(  6-C , 16-H ) :   0.9138 B(  7-C , 17-H ) :   0.9493 B(  7-C , 18-H ) :   0.9446
B(  7-C , 19-H ) :   0.9468

Dispersion correction           -0.014585945
FINAL SINGLE POINT ENERGY      -385.458945256799

DIPOLE MOMENT
-------------

Method             : SCF
Type of density    : Electron Density
Multiplicity       :   1
Irrep              :   0
Energy             :  -385.5341633219243818 Eh
Relativity type    :
Basis              : AO
                                X                 Y                 Z
Electronic contribution:      3.871596719      -0.153508478      -2.556360601
Nuclear contribution   :     -3.588589819      -0.257397544       2.992034673
                        -----------------------------------------
Total Dipole Moment    :      0.283006900      -0.410906022       0.435674072
                        -----------------------------------------
Magnitude (a.u.)       :      0.662380979
Magnitude (Debye)      :      1.683638648

Rotational constants in cm-1:             0.204035             0.028235             0.026942
Rotational constants in MHz :          6116.813836           846.450008           807.697757

                             ****ORCA TERMINATED NORMALLY****
TOTAL RUN TIME: 0 days 0 hours 0 minutes 10 seconds 457 msec
