                         Program Version 6.0.0  -   RELEASE  -
|  1> ! pbe def2-sv(p) def2/J RI DEFGRID1 loosescf d4 GCP(DFT/SV(P)) printgap
|  2> %output
|  3>     printlevel normal
|  4> end
|  5> * xyz 0 1
|  6> C -2.0244586576 -0.8129753878 -0.4391751143
|  7> C -1.5215031403 0.248179058 0.5336451337
|  8> C -0.2845031522 0.9619953185 0.0048996029
|  9> N 0.8993830892 0.1048984126 -0.0146706613
| 10> O 1.7965001194 0.4188771833 -0.7748392887
| 11> O 0.9527772281 -0.8517774836 0.7265882456
| 12> H -2.9272869774 -1.2766262445 -0.0527964556
| 13> H -2.2513303376 -0.3727762915 -1.4071774087
| 14> H -1.2789729964 -1.5934141997 -0.5769551493
| 15> H -1.286590326 -0.2166947553 1.4918213482
| 16> H -2.2987889623 0.994060956 0.695520336
| 17> H -0.4224557491 1.3358122216 -1.0116849892
| 18> H -0.0287337882 1.8104462971 0.6469475022
| 19> *
| 20>
| 21>                          ****END OF INPUT****

CARTESIAN COORDINATES (ANGSTROEM)
---------------------------------
  C     -2.024459   -0.812975   -0.439175
  C     -1.521503    0.248179    0.533645
  C     -0.284503    0.961995    0.004900
  N      0.899383    0.104898   -0.014671
  O      1.796500    0.418877   -0.774839
  O      0.952777   -0.851777    0.726588
  H     -2.927287   -1.276626   -0.052796
  H     -2.251330   -0.372776   -1.407177
  H     -1.278973   -1.593414   -0.576955
  H     -1.286590   -0.216695    1.491821
  H     -2.298789    0.994061    0.695520
  H     -0.422456    1.335812   -1.011685
  H     -0.028734    1.810446    0.646948

 Total Charge           Charge          ....    0
 Multiplicity           Mult            ....    1
 Number of Electrons    NEL             ....   48
 Basis Dimension        Dim             ....   98

ORBITAL ENERGIES
----------------

  NO   OCC          E(Eh)            E(eV)
   0   2.0000     -18.785566      -511.1812
   1   2.0000     -18.780066      -511.0316
   2   2.0000     -14.207654      -386.6099
   3   2.0000      -9.949585      -270.7420
   4   2.0000      -9.909533      -269.6521
   5   2.0000      -9.889696      -269.1123
   6   2.0000      -1.135270       -30.8923
   7   2.0000      -0.964247       -26.2385
   8   2.0000      -0.768968       -20.9247
   9   2.0000      -0.681918       -18.5559
  10   2.0000      -0.582787       -15.8584
  11   2.0000      -0.519169       -14.1273
  12   2.0000      -0.506108       -13.7719
  13   2.0000      -0.482670       -13.1341
  14   2.0000      -0.450308       -12.2535
  15   2.0000      -0.414740       -11.2857
  16   2.0000      -0.407223       -11.0811
  17   2.0000      -0.379718       -10.3327
  18   2.0000      -0.328789        -8.9468
  19   2.0000      -0.326093        -8.8734
  20   2.0000      -0.318513        -8.6672
  21   2.0000      -0.274925        -7.4811
  22   2.0000      -0.256981        -6.9928
  23   2.0000      -0.234441        -6.3795
  24   0.0000      -0.097481        -2.6526
  25   0.0000       0.026809         0.7295
  26   0.0000       0.067894         1.8475
  27   0.0000       0.070047         1.9061
  28   0.0000       0.088301         2.4028

MULLIKEN ATOMIC CHARGES
-----------------------
   0 C :   -0.295159
   1 C :   -0.198055
   2 C :   -0.073321
   3 N :    0.182460
   4 O :   -0.221312
   5 O :   -0.209396
   6 H :    0.115170
   7 H :    0.102104
   8 H :    0.120119
   9 H :    0.116883
  10 H :    0.100530
  11 H :    0.120027
  12 H :    0.139950
Sum of atomic charges:    0.0000000

LOEWDIN ATOMIC CHARGES
----------------------
   0 C :   -0.344839
   1 C :   -0.249637
   2 C :   -0.185899
   3 N :    0.238877
   4 O :   -0.190263
   5 O :   -0.180245
   6 H :    0.126335
   7 H :    0.118525
   8 H :    0.123754
   9 H :    0.131613
  10 H :    0.127925
  11 H :    0.136644
  12 H :    0.147209

  Mayer bond orders larger than 0.100000
B(  0-C ,  1-C ) :   1.1472 B(  0-C ,  6-H ) :   0.9524 B(  0-C ,  7-H ) :   0.9545
B(  0-C ,  8-H ) :   0.9522 B(  1-C ,  2-C ) :   1.1082 B(  1-C ,  9-H ) :   0.9081
B(  1-C , 10-H ) :   0.9131 B(  2-C ,  3-N ) :   0.8971 B(  2-C , 11-H ) :   0.9182
B(  2-C , 12-H ) :   0.9074 B(  3-N ,  4-O ) :   1.5414 B(  3-N ,  5-O ) :   1.5502
B(  4-O ,  5-O ) :   0.3104

Dispersion correction           -0.008794750
FINAL SINGLE POINT ENERGY      -322.969802939110

DIPOLE MOMENT
-------------

Method             : SCF
Type of density    : Electron Density
Multiplicity       :   1
Irrep              :   0
Energy             :  -323.0207882359917448 Eh
Relativity type    :
Basis              : AO
                                X                 Y                 Z
Electronic contribution:      8.661922050       0.018404358       0.300688631
Nuclear contribution   :     -9.799576380       0.632867282      -0.201871002
                        -----------------------------------------
Total Dipole Moment    :     -1.137654330       0.651271640       0.098817628
                        -----------------------------------------
Magnitude (a.u.)       :      1.314601479
Magnitude (Debye)      :      3.341451409

Rotational constants in cm-1:             0.232604             0.081098             0.074555
Rotational constants in MHz :          6973.294839          2431.246926          2235.105341

                             ****ORCA TERMINATED NORMALLY****
TOTAL RUN TIME: 0 days 0 hours 0 minutes 9 seconds 812 msec
