                         Program Version 6.0.0  -   RELEASE  -
|  1> ! r2scan-3c def2/J RI DEFGRID2 scfconv6 printgap
|  2> %output
|  3>     printlevel normal
|  4> end
|  5> * xyz 0 1
|  6> C -3.0063752126 -0.5967269784 -0.7836788164
|  7> C -2.4981316687 0.3746550693 0.2748189103
|  8> C -1.1940289824 -0.096937546 0.9277336219
|  9> C 0.0088902918 0.0576980149 0.0321229062
| 10> O 0.0463717452 -0.1630564055 -1.1595432442
| 11> O 1.0597978693 0.4843362547 0.7278926857
| 12> C 2.3152957422 0.645808245 0.0468441746
| 13> C 3.1037108941 -0.6549676359 0.0361891213
| 14> H -3.916886871 -0.2159116415 -1.238698462
| 15> H -2.2591320571 -0.7287322169 -1.5615261417
| 16> H -3.2205732804 -1.566253033 -0.3402434937
| 17> H -3.2509177406 0.4837173981 1.0568971899
| 18> H -2.3386690407 1.3551248783 -0.1780794803
| 19> H -1.2781390303 -1.1575128286 1.1763591755
| 20> H -0.9926454281 0.4558127702 1.8451290604
| 21> H 2.1169853923 0.9853830919 -0.9743857316
| 22> H 2.836048336 1.4209976948 0.6097706124
| 23> H 3.2436654927 -1.0153810233 1.0517287123
| 24> H 2.5701417381 -1.4094970857 -0.5376644819
| 25> H 4.0728133556 -0.4845806932 -0.4212260383
| 26> *
| 27>
| 28>                          ****END OF INPUT****

CARTESIAN COORDINATES (ANGSTROEM)
---------------------------------
  C     -3.006375   -0.596727   -0.783679
  C     -2.498132    0.374655    0.274819
  C     -1.194029   -0.096938    0.927734
  C      0.008890    0.057698    0.032123
  O      0.046372   -0.163056   -1.159543
  O      1.059798    0.484336    0.727893
  C      2.315296    0.645808    0.046844
  C      3.103711   -0.654968    0.036189
  H     -3.916887   -0.215912   -1.238698
  H     -2.259132   -0.728732   -1.561526
  H     -3.220573   -1.566253   -0.340243
  H     -3.250918    0.483717    1.056897
  H     -2.338669    1.355125   -0.178079
  H     -1.278139   -1.157513    1.176359
  H     -0.992645    0.455813    1.845129
  H      2.116985    0.985383   -0.974386
  H      2.836048    1.420998    0.609771
  H      3.243665   -1.015381    1.051729
  H      2.570142   -1.409497   -0.537664
  H      4.072813   -0.484581   -0.421226

 Total Charge           Charge          ....    0
 Multiplicity           Mult            ....    1
 Number of Electrons    NEL             ....   64
 Basis Dimension        Dim             ....  222

ORBITAL ENERGIES
----------------

  NO   OCC          E(Eh)            E(eV)
   0   2.0000     -18.995813      -516.9024
   1   2.0000     -18.929138      -515.0880
   2   2.0000     -10.152953      -276.2759
   3   2.0000     -10.090416      -274.5742
   4   2.0000     -10.041452      -273.2418
   5   2.0000     -10.032914      -273.0095
   6   2.0000     -10.028900      -272.9002
   7   2.0000     -10.008388      -272.3421
   8   2.0000      -1.070848       -29.1392
   9   2.0000      -0.976586       -26.5742
  10   2.0000      -0.770352       -20.9623
  11   2.0000      -0.738827       -20.1045
  12   2.0000      -0.676231       -18.4012
  13   2.0000      -0.620722       -16.8907
  14   2.0000      -0.564012       -15.3476
  15   2.0000      -0.520809       -14.1719
  16   2.0000      -0.474718       -12.9177
  17   2.0000      -0.453769       -12.3477
  18   2.0000      -0.434564       -11.8251
  19   2.0000      -0.421081       -11.4582
  20   2.0000      -0.408927       -11.1275
  21   2.0000      -0.388530       -10.5724
  22   2.0000      -0.377286       -10.2665
  23   2.0000      -0.368213       -10.0196
  24   2.0000      -0.346475        -9.4281
  25   2.0000      -0.337540        -9.1849
  26   2.0000      -0.314030        -8.5452
  27   2.0000      -0.311920        -8.4878
  28   2.0000      -0.307335        -8.3630
  29   2.0000      -0.302041        -8.2190
  30   2.0000      -0.271625        -7.3913
  31   2.0000      -0.233864        -6.3638
  32   0.0000      -0.014936        -0.4064
  33   0.0000       0.078066         2.1243
  34   0.0000       0.091531         2.4907
  35   0.0000       0.108278         2.9464
  36   0.0000       0.123417         3.3583

MULLIKEN ATOMIC CHARGES
-----------------------
   0 C :   -0.516758
   1 C :   -0.205158
   2 C :   -0.274093
   3 C :    0.351215
   4 O :   -0.437484
   5 O :   -0.177778
   6 C :   -0.141855
   7 C :   -0.468431
   8 H :    0.141341
   9 H :    0.191671
  10 H :    0.136363
  11 H :    0.146775
  12 H :    0.136446
  13 H :    0.164212
  14 H :    0.167833
  15 H :    0.168874
  16 H :    0.147760
  17 H :    0.152028
  18 H :    0.170338
  19 H :    0.146702
Sum of atomic charges:   -0.0000000

LOEWDIN ATOMIC CHARGES
----------------------
   0 C :   -0.422389
   1 C :   -0.294101
   2 C :   -0.231965
   3 C :    0.364838
   4 O :   -0.443913
   5 O :   -0.600060
   6 C :    0.026270
   7 C :   -0.390290
   8 H :    0.149130
   9 H :    0.173239
  10 H :    0.147321
  11 H :    0.153066
  12 H :    0.159126
  13 H :    0.182270
  14 H :    0.180690
  15 H :    0.188667
  16 H :    0.177564
  17 H :    0.157112
  18 H :    0.164323
  19 H :    0.159104

  Mayer bond orders larger than 0.100000
B(  0-C ,  1-C ) :   0.9043 B(  0-C ,  8-H ) :   0.9705 B(  0-C ,  9-H ) :   0.9724
B(  0-C , 10-H ) :   0.9813 B(  1-C ,  2-C ) :   0.8800 B(  1-C , 11-H ) :   0.9717
B(  1-C , 12-H ) :   0.9747 B(  2-C ,  3-C ) :   0.9765 B(  2-C , 13-H ) :   0.9389
B(  2-C , 14-H ) :   0.9641 B(  3-C ,  4-O ) :   1.8410 B(  3-C ,  5-O ) :   1.0722
B(  5-O ,  6-C ) :   0.8161 B(  6-C ,  7-C ) :   0.9380 B(  6-C , 15-H ) :   0.9670
B(  6-C , 16-H ) :   0.9615 B(  7-C , 17-H ) :   0.9738 B(  7-C , 18-H ) :   0.9720
B(  7-C , 19-H ) :   0.9649

Dispersion correction           -0.005043059
FINAL SINGLE POINT ENERGY      -386.234596455524

DIPOLE MOMENT
-------------

Method             : SCF
Type of density    : Electron Density
Multiplicity       :   1
Irrep              :   0
Energy             :  -386.2414567128729459 Eh
Relativity type    :
Basis              : AO
                                X                 Y                 Z
Electronic contribution:      2.566172770       1.895997612       0.182441596
Nuclear contribution   :     -2.251436462      -1.756017937       0.451481916
                        -----------------------------------------
Total Dipole Moment    :      0.314736308       0.139979675       0.633923512
                        -----------------------------------------
Magnitude (a.u.)       :      0.721465365
Magnitude (Debye)      :      1.833819222

Rotational constants in cm-1:             0.180664             0.032219             0.029880
Rotational constants in MHz :          5416.183130           965.904332           895.788919

                             ****ORCA TERMINATED NORMALLY****
TOTAL RUN TIME: 0 days 0 hours 0 minutes 31 seconds 452 msec
