                         Program Version 6.0.0  -   RELEASE  -
|  1> ! r2scan-3c def2/J RI DEFGRID2 scfconv6 printgap
|  2> %output
|  3>     printlevel normal
|  4> end
|  5> %cpcm
|  6>     smd true
|  7>     smdsolvent "water"
|  8> end
|  9> * xyz 0 1
| 10> C -3.0063752126 -0.5967269784 -0.7836788164
| 11> C -2.4981316687 0.3746550693 0.2748189103
| 12> C -1.1940289824 -0.096937546 0.9277336219
| 13> C 0.0088902918 0.0576980149 0.0321229062
| 14> O 0.0463717452 -0.1630564055 -1.1595432442
| 15> O 1.0597978693 0.4843362547 0.7278926857
| 16> C 2.3152957422 0.645808245 0.0468441746
| 17> C 3.1037108941 -0.6549676359 0.0361891213
| 18> H -3.916886871 -0.2159116415 -1.238698462
| 19> H -2.2591320571 -0.7287322169 -1.5615261417
| 20> H -3.2205732804 -1.566253033 -0.3402434937
| 21> H -3.2509177406 0.4837173981 1.0568971899
| 22> H -2.3386690407 1.3551248783 -0.1780794803
| 23> H -1.2781390303 -1.1575128286 1.1763591755
| 24> H -0.9926454281 0.4558127702 1.8451290604
| 25> H 2.1169853923 0.9853830919 -0.9743857316
| 26> H 2.836048336 1.4209976948 0.6097706124
| 27> H 3.2436654927 -1.0153810233 1.0517287123
| 28> H 2.5701417381 -1.4094970857 -0.5376644819
| 29> H 4.0728133556 -0.4845806932 -0.4212260383
| 30> *
| 31>
| 32>                          ****END OF INPUT****

CARTESIAN COORDINATES (ANGSTROEM)
---------------------------------
  C     -3.006375   -0.596727   -0.783679
  C     -2.498132    0.374655    0.274819
  C     -1.194029   -0.096938    0.927734
  C      0.008890    0.057698    0.032123
  O      0.046372   -0.163056   -1.159543
  O      1.059798    0.484336    0.727893
  C      2.315296    0.645808    0.046844
  C      3.103711   -0.654968    0.036189
  H     -3.916887   -0.215912   -1.238698
  H     -2.259132   -0.728732   -1.561526
  H     -3.220573   -1.566253   -0.340243
  H     -3.250918    0.483717    1.056897
  H     -2.338669    1.355125   -0.178079
  H     -1.278139   -1.157513    1.176359
  H     -0.992645    0.455813    1.845129
  H      2.116985    0.985383   -0.974386
  H      2.836048    1.420998    0.609771
  H      3.243665   -1.015381    1.051729
  H      2.570142   -1.409497   -0.537664
  H      4.072813   -0.484581   -0.421226

 Total Charge           Charge          ....    0
 Multiplicity           Mult            ....    1
 Number of Electrons    NEL             ....   64
 Basis Dimension        Dim             ....  222

ORBITAL ENERGIES
----------------

  NO   OCC          E(Eh)            E(eV)
   0   2.0000     -19.000658      -517.0342
   1   2.0000     -18.942329      -515.4470
   2   2.0000     -10.161878      -276.5188
   3   2.0000     -10.082343      -274.3545
   4   2.0000     -10.035254      -273.0732
   5   2.0000     -10.026828      -272.8439
   6   2.0000     -10.018096      -272.6062
   7   2.0000     -10.007223      -272.3104
   8   2.0000      -1.077159       -29.3110
   9   2.0000      -0.987929       -26.8829
  10   2.0000      -0.766438       -20.8558
  11   2.0000      -0.732598       -19.9350
  12   2.0000      -0.672568       -18.3015
  13   2.0000      -0.616067       -16.7640
  14   2.0000      -0.559586       -15.2271
  15   2.0000      -0.518820       -14.1178
  16   2.0000      -0.473358       -12.8807
  17   2.0000      -0.461423       -12.5560
  18   2.0000      -0.434536       -11.8243
  19   2.0000      -0.421016       -11.4564
  20   2.0000      -0.406152       -11.0520
  21   2.0000      -0.384696       -10.4681
  22   2.0000      -0.372994       -10.1497
  23   2.0000      -0.362445        -9.8626
  24   2.0000      -0.344820        -9.3830
  25   2.0000      -0.336064        -9.1448
  26   2.0000      -0.312232        -8.4963
  27   2.0000      -0.307826        -8.3764
  28   2.0000      -0.302649        -8.2355
  29   2.0000      -0.300056        -8.1650
  30   2.0000      -0.277418        -7.5489
  31   2.0000      -0.245722        -6.6864
  32   0.0000      -0.021460        -0.5839
  33   0.0000       0.080799         2.1987
  34   0.0000       0.098726         2.6865
  35   0.0000       0.117086         3.1861
  36   0.0000       0.130490         3.5508

MULLIKEN ATOMIC CHARGES
-----------------------
   0 C :   -0.548748
   1 C :   -0.227549
   2 C :   -0.279587
   3 C :    0.381081
   4 O :   -0.511265
   5 O :   -0.199526
   6 C :   -0.144920
   7 C :   -0.494982
   8 H :    0.156065
   9 H :    0.171285
  10 H :    0.156823
  11 H :    0.164977
  12 H :    0.151353
  13 H :    0.195033
  14 H :    0.182160
  15 H :    0.171578
  16 H :    0.173146
  17 H :    0.165463
  18 H :    0.167976
  19 H :    0.169636
Sum of atomic charges:    0.0000000

LOEWDIN ATOMIC CHARGES
----------------------
   0 C :   -0.429785
   1 C :   -0.293879
   2 C :   -0.228144
   3 C :    0.374598
   4 O :   -0.497847
   5 O :   -0.604862
   6 C :    0.030603
   7 C :   -0.393413
   8 H :    0.152953
   9 H :    0.163284
  10 H :    0.153432
  11 H :    0.160568
  12 H :    0.161679
  13 H :    0.193691
  14 H :    0.187634
  15 H :    0.189596
  16 H :    0.188561
  17 H :    0.161793
  18 H :    0.162025
  19 H :    0.167512

  Mayer bond orders larger than 0.100000
B(  0-C ,  1-C ) :   0.8935 B(  0-C ,  8-H ) :   0.9683 B(  0-C ,  9-H ) :   0.9777
B(  0-C , 10-H ) :   0.9780 B(  1-C ,  2-C ) :   0.8600 B(  1-C , 11-H ) :   0.9665
B(  1-C , 12-H ) :   0.9789 B(  2-C ,  3-C ) :   0.9798 B(  2-C , 13-H ) :   0.9292
B(  2-C , 14-H ) :   0.9563 B(  3-C ,  4-O ) :   1.7869 B(  3-C ,  5-O ) :   1.0886
B(  5-O ,  6-C ) :   0.7993 B(  6-C ,  7-C ) :   0.9368 B(  6-C , 15-H ) :   0.9629
B(  6-C , 16-H ) :   0.9525 B(  7-C , 17-H ) :   0.9700 B(  7-C , 18-H ) :   0.9697
B(  7-C , 19-H ) :   0.9600

Dispersion correction           -0.005043059
FINAL SINGLE POINT ENERGY      -386.238374698159

DIPOLE MOMENT
-------------

Method             : SCF
Type of density    : Electron Density
Multiplicity       :   1
Irrep              :   0
Energy             :  -386.2452349555075557 Eh
Relativity type    :
Basis              : AO
                                X                 Y                 Z
Electronic contribution:      2.619915597       1.970573045       0.538968407
Nuclear contribution   :     -2.251436462      -1.756017937       0.451481916
                        -----------------------------------------
Total Dipole Moment    :      0.368479135       0.214555108       0.990450324
                        -----------------------------------------
Magnitude (a.u.)       :      1.078333256
Magnitude (Debye)      :      2.740905313

Rotational constants in cm-1:             0.180664             0.032219             0.029880
Rotational constants in MHz :          5416.183130           965.904332           895.788919

                             ****ORCA TERMINATED NORMALLY****
TOTAL RUN TIME: 0 days 0 hours 0 minutes 36 seconds 779 msec
