                         Program Version 6.0.0  -   RELEASE  -
|  1> ! pbe def2-sv(p) def2/J RI DEFGRID1 loosescf d4 GCP(DFT/SV(P)) printgap
|  2> %output
|  3>     printlevel normal
|  4> end
|  5> * xyz 0 1
|  6> C 0.7977954396 -2.2985205253 -0.0968825711
|  7> O 0.7074635344 -1.0368695055 0.5617225414
|  8> C 0.3211689417 0.0005148429 -0.2679831863
|  9> O 0.5998023493 1.1571917712 0.437753732
| 10> C 0.5711283668 2.3395109753 -0.3590508623
| 11> O -1.0122860903 -0.0873073872 -0.6643442165
| 12> C -1.9558052228 -0.0718154526 0.4116869505
| 13> H 1.5827523054 -2.2706446219 -0.8573102949
| 14> H -0.1545105542 -2.5604466305 -0.563181028
| 15> H 1.0495332818 -3.00951762 0.6840614616
| 16> H 0.8809100987 -0.0263669891 -1.2279979243
| 17> H 1.3607172839 2.3034820259 -1.1143021806
| 18> H 0.7460740209 3.1550984158 0.3359116718
| 19> H -0.3987264166 2.452588642 -0.84857219
| 20> H -1.8713587357 0.8578622734 0.9770105325
| 21> H -1.7831229913 -0.91719603 1.0799076353
| 22> H -2.9283186669 -0.1477356622 -0.0646161574
| 23> *
| 24>
| 25>                          ****END OF INPUT****

CARTESIAN COORDINATES (ANGSTROEM)
---------------------------------
  C      0.797795   -2.298521   -0.096883
  O      0.707464   -1.036870    0.561723
  C      0.321169    0.000515   -0.267983
  O      0.599802    1.157192    0.437754
  C      0.571128    2.339511   -0.359051
  O     -1.012286   -0.087307   -0.664344
  C     -1.955805   -0.071815    0.411687
  H      1.582752   -2.270645   -0.857310
  H     -0.154511   -2.560447   -0.563181
  H      1.049533   -3.009518    0.684061
  H      0.880910   -0.026367   -1.227998
  H      1.360717    2.303482   -1.114302
  H      0.746074    3.155098    0.335912
  H     -0.398726    2.452589   -0.848572
  H     -1.871359    0.857862    0.977011
  H     -1.783123   -0.917196    1.079908
  H     -2.928319   -0.147736   -0.064616

 Total Charge           Charge          ....    0
 Multiplicity           Mult            ....    1
 Number of Electrons    NEL             ....   58
 Basis Dimension        Dim             ....  118

ORBITAL ENERGIES
----------------

  NO   OCC          E(Eh)            E(eV)
   0   2.0000     -18.760388      -510.4961
   1   2.0000     -18.760282      -510.4932
   2   2.0000     -18.759790      -510.4798
   3   2.0000     -10.019380      -272.6412
   4   2.0000      -9.929944      -270.2075
   5   2.0000      -9.929915      -270.2067
   6   2.0000      -9.920781      -269.9582
   7   2.0000      -1.001290       -27.2465
   8   2.0000      -0.918898       -25.0045
   9   2.0000      -0.909233       -24.7415
  10   2.0000      -0.669154       -18.2086
  11   2.0000      -0.629204       -17.1215
  12   2.0000      -0.605411       -16.4741
  13   2.0000      -0.526563       -14.3285
  14   2.0000      -0.473552       -12.8860
  15   2.0000      -0.462959       -12.5978
  16   2.0000      -0.462380       -12.5820
  17   2.0000      -0.406808       -11.0698
  18   2.0000      -0.393526       -10.7084
  19   2.0000      -0.382758       -10.4154
  20   2.0000      -0.374240       -10.1836
  21   2.0000      -0.366697        -9.9783
  22   2.0000      -0.352626        -9.5954
  23   2.0000      -0.313291        -8.5251
  24   2.0000      -0.300091        -8.1659
  25   2.0000      -0.255657        -6.9568
  26   2.0000      -0.232361        -6.3229
  27   2.0000      -0.227695        -6.1959
  28   2.0000      -0.216519        -5.8918
  29   0.0000       0.040746         1.1088
  30   0.0000       0.059523         1.6197
  31   0.0000       0.070173         1.9095
  32   0.0000       0.078874         2.1463
  33   0.0000       0.094590         2.5739

MULLIKEN ATOMIC CHARGES
-----------------------
   0 C :   -0.106034
   1 O :   -0.300285
   2 C :    0.264728
   3 O :   -0.300327
   4 C :   -0.106098
   5 O :   -0.329885
   6 C :   -0.099882
   7 H :    0.094692
   8 H :    0.103597
   9 H :    0.121413
  10 H :    0.027379
  11 H :    0.094761
  12 H :    0.121429
  13 H :    0.103597
  14 H :    0.098896
  15 H :    0.098975
  16 H :    0.113044
Sum of atomic charges:   -0.0000000

LOEWDIN ATOMIC CHARGES
----------------------
   0 C :   -0.203762
   1 O :   -0.153061
   2 C :    0.045586
   3 O :   -0.153017
   4 C :   -0.203777
   5 O :   -0.173805
   6 C :   -0.212959
   7 H :    0.103565
   8 H :    0.104558
   9 H :    0.119701
  10 H :    0.072252
  11 H :    0.103583
  12 H :    0.119710
  13 H :    0.104562
  14 H :    0.105641
  15 H :    0.105673
  16 H :    0.115549

  Mayer bond orders larger than 0.100000
B(  0-C ,  1-O ) :   0.9862 B(  0-C ,  7-H ) :   0.9466 B(  0-C ,  8-H ) :   0.9418
B(  0-C ,  9-H ) :   0.9649 B(  1-O ,  2-C ) :   1.0846 B(  2-C ,  3-O ) :   1.0844
B(  2-C ,  5-O ) :   1.0942 B(  2-C , 10-H ) :   0.8908 B(  3-O ,  4-C ) :   0.9861
B(  4-C , 11-H ) :   0.9467 B(  4-C , 12-H ) :   0.9649 B(  4-C , 13-H ) :   0.9417
B(  5-O ,  6-C ) :   0.9703 B(  6-C , 14-H ) :   0.9459 B(  6-C , 15-H ) :   0.9458
B(  6-C , 16-H ) :   0.9643

Dispersion correction           -0.012072988
FINAL SINGLE POINT ENERGY      -383.233426735863

DIPOLE MOMENT
-------------

Method             : SCF
Type of density    : Electron Density
Multiplicity       :   1
Irrep              :   0
Energy             :  -383.3134693421189354 Eh
Relativity type    :
Basis              : AO
                                X                 Y                 Z
Electronic contribution:      1.281773720       0.125234552       1.125663970
Nuclear contribution   :     -1.417936216      -0.152315720      -1.495244615
                        -----------------------------------------
Total Dipole Moment    :     -0.136162496      -0.027081168      -0.369580646
                        -----------------------------------------
Magnitude (a.u.)       :      0.394795477
Magnitude (Debye)      :      1.003490354

Rotational constants in cm-1:             0.122601             0.070459             0.052045
Rotational constants in MHz :          3675.482208          2112.300790          1560.269912

                             ****ORCA TERMINATED NORMALLY****
TOTAL RUN TIME: 0 days 0 hours 0 minutes 9 seconds 591 msec
