                         Program Version 6.0.0  -   RELEASE  -
|  1> ! r2scan-3c def2/J RI DEFGRID2 scfconv6 printgap
|  2> %output
|  3>     printlevel normal
|  4> end
|  5> * xyz 0 1
|  6> C -2.7275353207 0.1474654561 -0.0517686611
|  7> C -1.2993208629 0.2054738841 0.4733305012
|  8> C -0.3032002892 -0.1482760942 -0.6421989263
|  9> N 1.0402357499 -0.0859715285 -0.0895301559
| 10> O 1.6172768995 0.9826217135 -0.1096255666
| 11> O 1.5016039516 -1.0941582046 0.4064155138
| 12> H -2.9642094742 -0.8505340781 -0.4099069064
| 13> H -3.4214627401 0.4012627729 0.744048768
| 14> H -2.8654449757 0.852168486 -0.8670000843
| 15> H -1.1771526877 -0.5001279159 1.2971803508
| 16> H -1.0787363405 1.2085210613 0.8430384531
| 17> H -0.4824437532 -1.1644265366 -0.99429498
| 18> H -0.3757077271 0.5794954959 -1.4508394953
| 19> *
| 20>
| 21>                          ****END OF INPUT****

CARTESIAN COORDINATES (ANGSTROEM)
---------------------------------
  C     -2.727535    0.147465   -0.051769
  C     -1.299321    0.205474    0.473331
  C     -0.303200   -0.148276   -0.642199
  N      1.040236   -0.085972   -0.089530
  O      1.617277    0.982622   -0.109626
  O      1.501604   -1.094158    0.406416
  H     -2.964209   -0.850534   -0.409907
  H     -3.421463    0.401263    0.744049
  H     -2.865445    0.852168   -0.867000
  H     -1.177153   -0.500128    1.297180
  H     -1.078736    1.208521    0.843038
  H     -0.482444   -1.164427   -0.994295
  H     -0.375708    0.579495   -1.450839

 Total Charge           Charge          ....    0
 Multiplicity           Mult            ....    1
 Number of Electrons    NEL             ....   48
 Basis Dimension        Dim             ....  164

ORBITAL ENERGIES
----------------

  NO   OCC          E(Eh)            E(eV)
   0   2.0000     -18.982114      -516.5296
   1   2.0000     -18.982096      -516.5291
   2   2.0000     -14.389648      -391.5622
   3   2.0000     -10.097492      -274.7667
   4   2.0000     -10.062663      -273.8190
   5   2.0000     -10.043704      -273.3031
   6   2.0000      -1.204776       -32.7836
   7   2.0000      -1.025497       -27.9052
   8   2.0000      -0.818691       -22.2777
   9   2.0000      -0.734017       -19.9736
  10   2.0000      -0.614902       -16.7323
  11   2.0000      -0.573972       -15.6186
  12   2.0000      -0.515272       -14.0213
  13   2.0000      -0.500775       -13.6268
  14   2.0000      -0.494167       -13.4470
  15   2.0000      -0.458056       -12.4643
  16   2.0000      -0.408889       -11.1264
  17   2.0000      -0.393146       -10.6981
  18   2.0000      -0.366029        -9.9602
  19   2.0000      -0.342296        -9.3143
  20   2.0000      -0.334625        -9.1056
  21   2.0000      -0.290085        -7.8936
  22   2.0000      -0.273987        -7.4556
  23   2.0000      -0.254907        -6.9364
  24   0.0000      -0.099460        -2.7065
  25   0.0000       0.070698         1.9238
  26   0.0000       0.084972         2.3122
  27   0.0000       0.100766         2.7420
  28   0.0000       0.119366         3.2481

MULLIKEN ATOMIC CHARGES
-----------------------
   0 C :   -0.454166
   1 C :   -0.219351
   2 C :   -0.313290
   3 N :    0.244456
   4 O :   -0.193750
   5 O :   -0.193570
   6 H :    0.146959
   7 H :    0.158433
   8 H :    0.146685
   9 H :    0.159494
  10 H :    0.160036
  11 H :    0.179259
  12 H :    0.178805
Sum of atomic charges:    0.0000000

LOEWDIN ATOMIC CHARGES
----------------------
   0 C :   -0.412308
   1 C :   -0.256025
   2 C :    0.026439
   3 N :   -0.549535
   4 O :   -0.003623
   5 O :   -0.003413
   6 H :    0.153581
   7 H :    0.158982
   8 H :    0.153564
   9 H :    0.166402
  10 H :    0.166564
  11 H :    0.199646
  12 H :    0.199725

  Mayer bond orders larger than 0.100000
B(  0-C ,  1-C ) :   0.9090 B(  0-C ,  6-H ) :   0.9781 B(  0-C ,  7-H ) :   0.9667
B(  0-C ,  8-H ) :   0.9779 B(  1-C ,  2-C ) :   0.9201 B(  1-C ,  9-H ) :   0.9537
B(  1-C , 10-H ) :   0.9530 B(  2-C ,  3-N ) :   0.8635 B(  2-C ,  4-O ) :   0.1088
B(  2-C ,  5-O ) :   0.1078 B(  2-C , 11-H ) :   0.9622 B(  2-C , 12-H ) :   0.9608
B(  3-N ,  4-O ) :   1.8518 B(  3-N ,  5-O ) :   1.8512 B(  4-O ,  5-O ) :   0.2733

Dispersion correction           -0.002817273
FINAL SINGLE POINT ENERGY      -323.580289586439

DIPOLE MOMENT
-------------

Method             : SCF
Type of density    : Electron Density
Multiplicity       :   1
Irrep              :   0
Energy             :  -323.5899590571350473 Eh
Relativity type    :
Basis              : AO
                                X                 Y                 Z
Electronic contribution:     10.047511648      -0.508768604       0.363427263
Nuclear contribution   :    -11.548635316       0.491687134      -0.782064535
                        -----------------------------------------
Total Dipole Moment    :     -1.501123668      -0.017081470      -0.418637272
                        -----------------------------------------
Magnitude (a.u.)       :      1.558499666
Magnitude (Debye)      :      3.961391334

Rotational constants in cm-1:             0.291890             0.066740             0.060659
Rotational constants in MHz :          8750.653667          2000.802263          1818.506563

                             ****ORCA TERMINATED NORMALLY****
TOTAL RUN TIME: 0 days 0 hours 0 minutes 22 seconds 663 msec
