                         Program Version 6.0.0  -   RELEASE  -
|  1> ! r2scan-3c def2/J RI DEFGRID2 scfconv6 printgap
|  2> %output
|  3>     printlevel normal
|  4> end
|  5> %cpcm
|  6>     smd true
|  7>     smdsolvent "water"
|  8> end
|  9> * xyz 0 1
| 10> C -2.7275353207 0.1474654561 -0.0517686611
| 11> C -1.2993208629 0.2054738841 0.4733305012
| 12> C -0.3032002892 -0.1482760942 -0.6421989263
| 13> N 1.0402357499 -0.0859715285 -0.0895301559
| 14> O 1.6172768995 0.9826217135 -0.1096255666
| 15> O 1.5016039516 -1.0941582046 0.4064155138
| 16> H -2.9642094742 -0.8505340781 -0.4099069064
| 17> H -3.4214627401 0.4012627729 0.744048768
| 18> H -2.8654449757 0.852168486 -0.8670000843
| 19> H -1.1771526877 -0.5001279159 1.2971803508
| 20> H -1.0787363405 1.2085210613 0.8430384531
| 21> H -0.4824437532 -1.1644265366 -0.99429498
| 22> H -0.3757077271 0.5794954959 -1.4508394953
| 23> *
| 24>
| 25>                          ****END OF INPUT****

CARTESIAN COORDINATES (ANGSTROEM)
---------------------------------
  C     -2.727535    0.147465   -0.051769
  C     -1.299321    0.205474    0.473331
  C     -0.303200   -0.148276   -0.642199
  N      1.040236   -0.085972   -0.089530
  O      1.617277    0.982622   -0.109626
  O      1.501604   -1.094158    0.406416
  H     -2.964209   -0.850534   -0.409907
  H     -3.421463    0.401263    0.744049
  H     -2.865445    0.852168   -0.867000
  H     -1.177153   -0.500128    1.297180
  H     -1.078736    1.208521    0.843038
  H     -0.482444   -1.164427   -0.994295
  H     -0.375708    0.579495   -1.450839

 Total Charge           Charge          ....    0
 Multiplicity           Mult            ....    1
 Number of Electrons    NEL             ....   48
 Basis Dimension        Dim             ....  164

ORBITAL ENERGIES
----------------

  NO   OCC          E(Eh)            E(eV)
   0   2.0000     -18.995181      -516.8851
   1   2.0000     -18.995163      -516.8847
   2   2.0000     -14.398917      -391.8145
   3   2.0000     -10.079988      -274.2904
   4   2.0000     -10.041447      -273.2417
   5   2.0000     -10.017877      -272.6003
   6   2.0000      -1.215806       -33.0838
   7   2.0000      -1.037900       -28.2427
   8   2.0000      -0.807125       -21.9630
   9   2.0000      -0.716857       -19.5067
  10   2.0000      -0.601131       -16.3576
  11   2.0000      -0.567925       -15.4540
  12   2.0000      -0.520739       -14.1700
  13   2.0000      -0.504061       -13.7162
  14   2.0000      -0.499111       -13.5815
  15   2.0000      -0.442805       -12.0493
  16   2.0000      -0.387266       -10.5381
  17   2.0000      -0.371685       -10.1141
  18   2.0000      -0.347112        -9.4454
  19   2.0000      -0.320238        -8.7141
  20   2.0000      -0.314802        -8.5662
  21   2.0000      -0.300657        -8.1813
  22   2.0000      -0.285302        -7.7635
  23   2.0000      -0.269372        -7.3300
  24   0.0000      -0.109181        -2.9710
  25   0.0000       0.092409         2.5146
  26   0.0000       0.099313         2.7024
  27   0.0000       0.119517         3.2522
  28   0.0000       0.142086         3.8663

MULLIKEN ATOMIC CHARGES
-----------------------
   0 C :   -0.498833
   1 C :   -0.206357
   2 C :   -0.323747
   3 N :    0.287116
   4 O :   -0.251416
   5 O :   -0.250931
   6 H :    0.161870
   7 H :    0.169047
   8 H :    0.161778
   9 H :    0.167141
  10 H :    0.167098
  11 H :    0.208483
  12 H :    0.208752
Sum of atomic charges:    0.0000000

LOEWDIN ATOMIC CHARGES
----------------------
   0 C :   -0.415279
   1 C :   -0.249422
   2 C :    0.040698
   3 N :   -0.541933
   4 O :   -0.038037
   5 O :   -0.037737
   6 H :    0.158186
   7 H :    0.161773
   8 H :    0.158214
   9 H :    0.168721
  10 H :    0.168717
  11 H :    0.212901
  12 H :    0.213199

  Mayer bond orders larger than 0.100000
B(  0-C ,  1-C ) :   0.9004 B(  0-C ,  6-H ) :   0.9754 B(  0-C ,  7-H ) :   0.9634
B(  0-C ,  8-H ) :   0.9753 B(  1-C ,  2-C ) :   0.8875 B(  1-C ,  9-H ) :   0.9533
B(  1-C , 10-H ) :   0.9525 B(  2-C ,  3-N ) :   0.8757 B(  2-C , 11-H ) :   0.9502
B(  2-C , 12-H ) :   0.9487 B(  3-N ,  4-O ) :   1.8056 B(  3-N ,  5-O ) :   1.8053
B(  4-O ,  5-O ) :   0.2627

Dispersion correction           -0.002817273
FINAL SINGLE POINT ENERGY      -323.585863870175

DIPOLE MOMENT
-------------

Method             : SCF
Type of density    : Electron Density
Multiplicity       :   1
Irrep              :   0
Energy             :  -323.5955333408708725 Eh
Relativity type    :
Basis              : AO
                                X                 Y                 Z
Electronic contribution:      9.624027433      -0.531512845       0.177334835
Nuclear contribution   :    -11.548635316       0.491687134      -0.782064535
                        -----------------------------------------
Total Dipole Moment    :     -1.924607883      -0.039825711      -0.604729700
                        -----------------------------------------
Magnitude (a.u.)       :      2.017770949
Magnitude (Debye)      :      5.128766162

Rotational constants in cm-1:             0.291890             0.066740             0.060659
Rotational constants in MHz :          8750.653667          2000.802263          1818.506563

                             ****ORCA TERMINATED NORMALLY****
TOTAL RUN TIME: 0 days 0 hours 0 minutes 25 seconds 365 msec
