                         Program Version 6.0.0  -   RELEASE  -
|  1> ! r2scan-3c def2/J RI DEFGRID2 scfconv6 printgap
|  2> %output
|  3>     printlevel normal
|  4> end
|  5> * xyz 0 1
|  6> C -3.5689273028 -1.0516008251 0.4303014607
|  7> C -2.6713460935 0.1172279461 0.0415827941
|  8> C -1.1931006242 -0.2604211963 0.1185232498
|  9> C -0.2992133708 0.9131744465 -0.2699424911
| 10> C 1.1784084444 0.6236739703 -0.2197969934
| 11> O 2.0317298154 1.4529199017 -0.4722883311
| 12> O 1.4491175606 -0.6249127447 0.1276151401
| 13> C 2.8139834355 -1.044972495 0.2146322766
| 14> H -4.6157349128 -0.7651825356 0.370441831
| 15> H -3.4044343665 -1.8957323385 -0.2351398296
| 16> H -3.3574384331 -1.3719954021 1.4476775734
| 17> H -2.9108803061 0.4358951977 -0.974872663
| 18> H -2.8646870262 0.9601849454 0.7080568021
| 19> H -0.9970051941 -1.102310968 -0.5471670274
| 20> H -0.9513522519 -0.5805693574 1.1331931299
| 21> H -0.4782788512 1.7691213801 0.3853322893
| 22> H -0.5221551378 1.2466364154 -1.2865982246
| 23> H 2.9818541953 -1.8017310162 -0.5498321121
| 24> H 2.9607529915 -1.468953832 1.2057350992
| 25> H 3.475778364 -0.1925693183 0.0571252953
| 26> *
| 27>
| 28>                          ****END OF INPUT****

CARTESIAN COORDINATES (ANGSTROEM)
---------------------------------
  C     -3.568927   -1.051601    0.430301
  C     -2.671346    0.117228    0.041583
  C     -1.193101   -0.260421    0.118523
  C     -0.299213    0.913174   -0.269942
  C      1.178408    0.623674   -0.219797
  O      2.031730    1.452920   -0.472288
  O      1.449118   -0.624913    0.127615
  C      2.813983   -1.044972    0.214632
  H     -4.615735   -0.765183    0.370442
  H     -3.404434   -1.895732   -0.235140
  H     -3.357438   -1.371995    1.447678
  H     -2.910880    0.435895   -0.974873
  H     -2.864687    0.960185    0.708057
  H     -0.997005   -1.102311   -0.547167
  H     -0.951352   -0.580569    1.133193
  H     -0.478279    1.769121    0.385332
  H     -0.522155    1.246636   -1.286598
  H      2.981854   -1.801731   -0.549832
  H      2.960753   -1.468954    1.205735
  H      3.475778   -0.192569    0.057125

 Total Charge           Charge          ....    0
 Multiplicity           Mult            ....    1
 Number of Electrons    NEL             ....   64
 Basis Dimension        Dim             ....  222

ORBITAL ENERGIES
----------------

  NO   OCC          E(Eh)            E(eV)
   0   2.0000     -19.001391      -517.0541
   1   2.0000     -18.924850      -514.9713
   2   2.0000     -10.153270      -276.2845
   3   2.0000     -10.086217      -274.4599
   4   2.0000     -10.043412      -273.2951
   5   2.0000     -10.030157      -272.9345
   6   2.0000     -10.029217      -272.9089
   7   2.0000     -10.018923      -272.6288
   8   2.0000      -1.074106       -29.2279
   9   2.0000      -0.973859       -26.5000
  10   2.0000      -0.779394       -21.2084
  11   2.0000      -0.729109       -19.8401
  12   2.0000      -0.685439       -18.6518
  13   2.0000      -0.619567       -16.8593
  14   2.0000      -0.553462       -15.0605
  15   2.0000      -0.536159       -14.5896
  16   2.0000      -0.466828       -12.7030
  17   2.0000      -0.466536       -12.6951
  18   2.0000      -0.441011       -12.0005
  19   2.0000      -0.435794       -11.8586
  20   2.0000      -0.403316       -10.9748
  21   2.0000      -0.396551       -10.7907
  22   2.0000      -0.386619       -10.5204
  23   2.0000      -0.358299        -9.7498
  24   2.0000      -0.349474        -9.5097
  25   2.0000      -0.324112        -8.8195
  26   2.0000      -0.323812        -8.8114
  27   2.0000      -0.311473        -8.4756
  28   2.0000      -0.306213        -8.3325
  29   2.0000      -0.301527        -8.2050
  30   2.0000      -0.269816        -7.3421
  31   2.0000      -0.233229        -6.3465
  32   0.0000      -0.012425        -0.3381
  33   0.0000       0.063759         1.7350
  34   0.0000       0.096466         2.6250
  35   0.0000       0.098845         2.6897
  36   0.0000       0.114456         3.1145

MULLIKEN ATOMIC CHARGES
-----------------------
   0 C :   -0.469808
   1 C :   -0.213934
   2 C :   -0.303064
   3 C :   -0.314371
   4 C :    0.365922
   5 O :   -0.426197
   6 O :   -0.161087
   7 C :   -0.308056
   8 H :    0.148260
   9 H :    0.142211
  10 H :    0.142129
  11 H :    0.135014
  12 H :    0.135099
  13 H :    0.149649
  14 H :    0.148786
  15 H :    0.170175
  16 H :    0.170307
  17 H :    0.148706
  18 H :    0.148246
  19 H :    0.192015
Sum of atomic charges:    0.0000000

LOEWDIN ATOMIC CHARGES
----------------------
   0 C :   -0.423634
   1 C :   -0.315002
   2 C :   -0.291167
   3 C :   -0.225358
   4 C :    0.362453
   5 O :   -0.444980
   6 O :   -0.610856
   7 C :   -0.043331
   8 H :    0.150564
   9 H :    0.150191
  10 H :    0.150185
  11 H :    0.151681
  12 H :    0.151691
  13 H :    0.163668
  14 H :    0.163053
  15 H :    0.184481
  16 H :    0.184587
  17 H :    0.173430
  18 H :    0.173982
  19 H :    0.194362

  Mayer bond orders larger than 0.100000
B(  0-C ,  1-C ) :   0.8962 B(  0-C ,  8-H ) :   0.9754 B(  0-C ,  9-H ) :   0.9834
B(  0-C , 10-H ) :   0.9833 B(  1-C ,  2-C ) :   0.9122 B(  1-C , 11-H ) :   0.9720
B(  1-C , 12-H ) :   0.9715 B(  2-C ,  3-C ) :   0.9146 B(  2-C , 13-H ) :   0.9739
B(  2-C , 14-H ) :   0.9745 B(  3-C ,  4-C ) :   1.0242 B(  3-C , 15-H ) :   0.9501
B(  3-C , 16-H ) :   0.9476 B(  4-C ,  5-O ) :   1.8677 B(  4-C ,  6-O ) :   1.0838
B(  6-O ,  7-C ) :   0.8335 B(  7-C , 17-H ) :   0.9626 B(  7-C , 18-H ) :   0.9655
B(  7-C , 19-H ) :   0.9697

Dispersion correction           -0.004929944
FINAL SINGLE POINT ENERGY      -386.228057367743

DIPOLE MOMENT
-------------

Method             : SCF
Type of density    : Electron Density
Multiplicity       :   1
Irrep              :   0
Energy             :  -386.2352376098225477 Eh
Relativity type    :
Basis              : AO
                                X                 Y                 Z
Electronic contribution:      9.604155010       3.702839941      -1.380926496
Nuclear contribution   :     -9.971365266      -4.460156866       1.602861972
                        -----------------------------------------
Total Dipole Moment    :     -0.367210256      -0.757316925       0.221935476
                        -----------------------------------------
Magnitude (a.u.)       :      0.870418090
Magnitude (Debye)      :      2.212426961

Rotational constants in cm-1:             0.151700             0.029213             0.025068
Rotational constants in MHz :          4547.848836           875.777335           751.532038

                             ****ORCA TERMINATED NORMALLY****
TOTAL RUN TIME: 0 days 0 hours 0 minutes 27 seconds 251 msec
