                         Program Version 6.0.0  -   RELEASE  -
|  1> ! r2scan-3c def2/J RI DEFGRID2 scfconv6 printgap
|  2> %output
|  3>     printlevel normal
|  4> end
|  5> %cpcm
|  6>     smd true
|  7>     smdsolvent "water"
|  8> end
|  9> * xyz 0 1
| 10> C -3.5689273028 -1.0516008251 0.4303014607
| 11> C -2.6713460935 0.1172279461 0.0415827941
| 12> C -1.1931006242 -0.2604211963 0.1185232498
| 13> C -0.2992133708 0.9131744465 -0.2699424911
| 14> C 1.1784084444 0.6236739703 -0.2197969934
| 15> O 2.0317298154 1.4529199017 -0.4722883311
| 16> O 1.4491175606 -0.6249127447 0.1276151401
| 17> C 2.8139834355 -1.044972495 0.2146322766
| 18> H -4.6157349128 -0.7651825356 0.370441831
| 19> H -3.4044343665 -1.8957323385 -0.2351398296
| 20> H -3.3574384331 -1.3719954021 1.4476775734
| 21> H -2.9108803061 0.4358951977 -0.974872663
| 22> H -2.8646870262 0.9601849454 0.7080568021
| 23> H -0.9970051941 -1.102310968 -0.5471670274
| 24> H -0.9513522519 -0.5805693574 1.1331931299
| 25> H -0.4782788512 1.7691213801 0.3853322893
| 26> H -0.5221551378 1.2466364154 -1.2865982246
| 27> H 2.9818541953 -1.8017310162 -0.5498321121
| 28> H 2.9607529915 -1.468953832 1.2057350992
| 29> H 3.475778364 -0.1925693183 0.0571252953
| 30> *
| 31>
| 32>                          ****END OF INPUT****

CARTESIAN COORDINATES (ANGSTROEM)
---------------------------------
  C     -3.568927   -1.051601    0.430301
  C     -2.671346    0.117228    0.041583
  C     -1.193101   -0.260421    0.118523
  C     -0.299213    0.913174   -0.269942
  C      1.178408    0.623674   -0.219797
  O      2.031730    1.452920   -0.472288
  O      1.449118   -0.624913    0.127615
  C      2.813983   -1.044972    0.214632
  H     -4.615735   -0.765183    0.370442
  H     -3.404434   -1.895732   -0.235140
  H     -3.357438   -1.371995    1.447678
  H     -2.910880    0.435895   -0.974873
  H     -2.864687    0.960185    0.708057
  H     -0.997005   -1.102311   -0.547167
  H     -0.951352   -0.580569    1.133193
  H     -0.478279    1.769121    0.385332
  H     -0.522155    1.246636   -1.286598
  H      2.981854   -1.801731   -0.549832
  H      2.960753   -1.468954    1.205735
  H      3.475778   -0.192569    0.057125

 Total Charge           Charge          ....    0
 Multiplicity           Mult            ....    1
 Number of Electrons    NEL             ....   64
 Basis Dimension        Dim             ....  222

ORBITAL ENERGIES
----------------

  NO   OCC          E(Eh)            E(eV)
   0   2.0000     -19.005468      -517.1651
   1   2.0000     -18.940246      -515.3903
   2   2.0000     -10.163097      -276.5519
   3   2.0000     -10.075270      -274.1620
   4   2.0000     -10.036235      -273.0998
   5   2.0000     -10.020742      -272.6783
   6   2.0000     -10.017587      -272.5924
   7   2.0000     -10.007980      -272.3310
   8   2.0000      -1.079704       -29.3803
   9   2.0000      -0.987217       -26.8635
  10   2.0000      -0.771233       -20.9863
  11   2.0000      -0.722192       -19.6518
  12   2.0000      -0.677660       -18.4401
  13   2.0000      -0.611995       -16.6532
  14   2.0000      -0.543778       -14.7970
  15   2.0000      -0.532928       -14.5017
  16   2.0000      -0.465145       -12.6572
  17   2.0000      -0.463059       -12.6005
  18   2.0000      -0.450280       -12.2527
  19   2.0000      -0.431515       -11.7421
  20   2.0000      -0.394407       -10.7324
  21   2.0000      -0.390285       -10.6202
  22   2.0000      -0.381890       -10.3917
  23   2.0000      -0.356125        -9.6907
  24   2.0000      -0.340947        -9.2776
  25   2.0000      -0.321680        -8.7534
  26   2.0000      -0.315464        -8.5842
  27   2.0000      -0.308529        -8.3955
  28   2.0000      -0.297236        -8.0882
  29   2.0000      -0.290721        -7.9109
  30   2.0000      -0.276221        -7.5164
  31   2.0000      -0.247659        -6.7391
  32   0.0000      -0.019313        -0.5255
  33   0.0000       0.070395         1.9156
  34   0.0000       0.105899         2.8817
  35   0.0000       0.108305         2.9471
  36   0.0000       0.126460         3.4411

MULLIKEN ATOMIC CHARGES
-----------------------
   0 C :   -0.513421
   1 C :   -0.233368
   2 C :   -0.314328
   3 C :   -0.327009
   4 C :    0.401901
   5 O :   -0.515808
   6 O :   -0.175243
   7 C :   -0.321206
   8 H :    0.157694
   9 H :    0.153592
  10 H :    0.153512
  11 H :    0.147227
  12 H :    0.147343
  13 H :    0.159022
  14 H :    0.158737
  15 H :    0.191317
  16 H :    0.192532
  17 H :    0.176578
  18 H :    0.175517
  19 H :    0.185410
Sum of atomic charges:    0.0000000

LOEWDIN ATOMIC CHARGES
----------------------
   0 C :   -0.432336
   1 C :   -0.314651
   2 C :   -0.290663
   3 C :   -0.224114
   4 C :    0.372829
   5 O :   -0.510111
   6 O :   -0.610340
   7 C :   -0.037626
   8 H :    0.152641
   9 H :    0.152542
  10 H :    0.152539
  11 H :    0.155082
  12 H :    0.155091
  13 H :    0.165296
  14 H :    0.164843
  15 H :    0.192919
  16 H :    0.193482
  17 H :    0.184732
  18 H :    0.185524
  19 H :    0.192320

  Mayer bond orders larger than 0.100000
B(  0-C ,  1-C ) :   0.8836 B(  0-C ,  8-H ) :   0.9730 B(  0-C ,  9-H ) :   0.9812
B(  0-C , 10-H ) :   0.9811 B(  1-C ,  2-C ) :   0.9127 B(  1-C , 11-H ) :   0.9725
B(  1-C , 12-H ) :   0.9720 B(  2-C ,  3-C ) :   0.9106 B(  2-C , 13-H ) :   0.9725
B(  2-C , 14-H ) :   0.9731 B(  3-C ,  4-C ) :   1.0279 B(  3-C , 15-H ) :   0.9392
B(  3-C , 16-H ) :   0.9353 B(  4-C ,  5-O ) :   1.7961 B(  4-C ,  6-O ) :   1.1144
B(  6-O ,  7-C ) :   0.8206 B(  7-C , 17-H ) :   0.9534 B(  7-C , 18-H ) :   0.9559
B(  7-C , 19-H ) :   0.9661

Dispersion correction           -0.004929944
FINAL SINGLE POINT ENERGY      -386.232695422531

DIPOLE MOMENT
-------------

Method             : SCF
Type of density    : Electron Density
Multiplicity       :   1
Irrep              :   0
Energy             :  -386.2398756646097695 Eh
Relativity type    :
Basis              : AO
                                X                 Y                 Z
Electronic contribution:      9.442952870       3.440860921      -1.306408309
Nuclear contribution   :     -9.971365266      -4.460156866       1.602861972
                        -----------------------------------------
Total Dipole Moment    :     -0.528412396      -1.019295945       0.296453663
                        -----------------------------------------
Magnitude (a.u.)       :      1.185777660
Magnitude (Debye)      :      3.014007284

Rotational constants in cm-1:             0.151700             0.029213             0.025068
Rotational constants in MHz :          4547.848836           875.777335           751.532038

                             ****ORCA TERMINATED NORMALLY****
TOTAL RUN TIME: 0 days 0 hours 0 minutes 32 seconds 182 msec
