                         Program Version 6.0.0  -   RELEASE  -
|  1> ! pbe def2-sv(p) def2/J RI DEFGRID1 loosescf d4 GCP(DFT/SV(P)) printgap
|  2> %output
|  3>     printlevel normal
|  4> end
|  5> * xyz 0 1
|  6> C 2.4034162077 -0.338729012 -0.3740298217
|  7> C 1.3248405096 0.5251441313 0.2709683782
|  8> C 0.0067327297 -0.2396695999 0.4762057943
|  9> C -1.1726655974 0.4198044652 -0.2536250635
| 10> N -2.4444750835 -0.272954477 -0.1109959481
| 11> H 2.6283921769 -1.1997542376 0.2515698642
| 12> H 2.0731891503 -0.695403478 -1.3470593746
| 13> H 3.3178902421 0.2335581923 -0.5109880609
| 14> H 1.6924933567 0.8963655024 1.2288259223
| 15> H 1.1419001744 1.3944288466 -0.3639775107
| 16> H 0.1154815738 -1.2623323492 0.1059063794
| 17> H -0.2320198841 -0.3033591204 1.5407803841
| 18> H -0.9500324122 0.4800480919 -1.3227399128
| 19> H -1.3097073675 1.4383259809 0.1206561671
| 20> H -2.6886823597 -0.3340462293 0.8720860648
| 21> H -2.3530901922 -1.2227298919 -0.4568529736
| 22> *
| 23>
| 24>                          ****END OF INPUT****

CARTESIAN COORDINATES (ANGSTROEM)
---------------------------------
  C      2.403416   -0.338729   -0.374030
  C      1.324841    0.525144    0.270968
  C      0.006733   -0.239670    0.476206
  C     -1.172666    0.419804   -0.253625
  N     -2.444475   -0.272954   -0.110996
  H      2.628392   -1.199754    0.251570
  H      2.073189   -0.695403   -1.347059
  H      3.317890    0.233558   -0.510988
  H      1.692493    0.896366    1.228826
  H      1.141900    1.394429   -0.363978
  H      0.115482   -1.262332    0.105906
  H     -0.232020   -0.303359    1.540780
  H     -0.950032    0.480048   -1.322740
  H     -1.309707    1.438326    0.120656
  H     -2.688682   -0.334046    0.872086
  H     -2.353090   -1.222730   -0.456853

 Total Charge           Charge          ....    0
 Multiplicity           Mult            ....    1
 Number of Electrons    NEL             ....   42
 Basis Dimension        Dim             ....   92

ORBITAL ENERGIES
----------------

  NO   OCC          E(Eh)            E(eV)
   0   2.0000     -13.953388      -379.6910
   1   2.0000      -9.902884      -269.4712
   2   2.0000      -9.882513      -268.9169
   3   2.0000      -9.878588      -268.8100
   4   2.0000      -9.873323      -268.6668
   5   2.0000      -0.791083       -21.5265
   6   2.0000      -0.705886       -19.2081
   7   2.0000      -0.627783       -17.0829
   8   2.0000      -0.550969       -14.9926
   9   2.0000      -0.515200       -14.0193
  10   2.0000      -0.448346       -12.2001
  11   2.0000      -0.410386       -11.1672
  12   2.0000      -0.390627       -10.6295
  13   2.0000      -0.375698       -10.2233
  14   2.0000      -0.354382        -9.6432
  15   2.0000      -0.327241        -8.9047
  16   2.0000      -0.316298        -8.6069
  17   2.0000      -0.297275        -8.0893
  18   2.0000      -0.290225        -7.8974
  19   2.0000      -0.278631        -7.5819
  20   2.0000      -0.177877        -4.8403
  21   0.0000       0.033818         0.9202
  22   0.0000       0.046789         1.2732
  23   0.0000       0.065516         1.7828
  24   0.0000       0.076478         2.0811
  25   0.0000       0.097425         2.6511

MULLIKEN ATOMIC CHARGES
-----------------------
   0 C :   -0.296939
   1 C :   -0.173647
   2 C :   -0.176137
   3 C :   -0.116446
   4 N :   -0.436875
   5 H :    0.104108
   6 H :    0.102197
   7 H :    0.101197
   8 H :    0.085730
   9 H :    0.088753
  10 H :    0.072182
  11 H :    0.071341
  12 H :    0.088594
  13 H :    0.091153
  14 H :    0.197408
  15 H :    0.197382
Sum of atomic charges:    0.0000000

LOEWDIN ATOMIC CHARGES
----------------------
   0 C :   -0.340586
   1 C :   -0.236305
   2 C :   -0.253687
   3 C :   -0.184562
   4 N :   -0.406745
   5 H :    0.116453
   6 H :    0.115854
   7 H :    0.117284
   8 H :    0.116664
   9 H :    0.114876
  10 H :    0.108277
  11 H :    0.110094
  12 H :    0.110782
  13 H :    0.111409
  14 H :    0.200188
  15 H :    0.200005

  Mayer bond orders larger than 0.100000
B(  0-C ,  1-C ) :   1.1573 B(  0-C ,  5-H ) :   0.9557 B(  0-C ,  6-H ) :   0.9554
B(  0-C ,  7-H ) :   0.9525 B(  1-C ,  2-C ) :   1.0680 B(  1-C ,  8-H ) :   0.9290
B(  1-C ,  9-H ) :   0.9359 B(  2-C ,  3-C ) :   1.1049 B(  2-C , 10-H ) :   0.9322
B(  2-C , 11-H ) :   0.9226 B(  3-C ,  4-N ) :   1.1437 B(  3-C , 12-H ) :   0.9320
B(  3-C , 13-H ) :   0.9318 B(  4-N , 14-H ) :   0.9117 B(  4-N , 15-H ) :   0.9117

Dispersion correction           -0.009831727
FINAL SINGLE POINT ENERGY      -213.241311149581

DIPOLE MOMENT
-------------

Method             : SCF
Type of density    : Electron Density
Multiplicity       :   1
Irrep              :   0
Energy             :  -213.3017114748013796 Eh
Relativity type    :
Basis              : AO
                                X                 Y                 Z
Electronic contribution:     -2.892406452       0.252856069       0.188770637
Nuclear contribution   :      3.209994244      -0.540839784       0.110290788
                        -----------------------------------------
Total Dipole Moment    :      0.317587792      -0.287983715       0.299061426
                        -----------------------------------------
Magnitude (a.u.)       :      0.522718243
Magnitude (Debye)      :      1.328644185

Rotational constants in cm-1:             0.494422             0.068071             0.066833
Rotational constants in MHz :         14822.399100          2040.722450          2003.595366

                             ****ORCA TERMINATED NORMALLY****
TOTAL RUN TIME: 0 days 0 hours 0 minutes 7 seconds 520 msec
