                         Program Version 6.0.0  -   RELEASE  -
|  1> ! r2scan-3c def2/J RI DEFGRID2 scfconv6 printgap
|  2> %output
|  3>     printlevel normal
|  4> end
|  5> * xyz 0 1
|  6> C -3.6600397206 -0.7100673678 0.2477735054
|  7> C -2.4270184241 0.1829577422 0.203468074
|  8> C -1.1662427725 -0.6206071014 -0.1107782655
|  9> C 0.0439151416 0.2609905449 -0.2735999176
| 10> O 0.0225540198 1.426945385 -0.6104038235
| 11> O 1.1632479975 -0.4009775893 -0.0101580074
| 12> C 2.4159062941 0.2943722341 -0.1380353949
| 13> C 3.4582689826 -0.4469482499 0.6774161624
| 14> H -3.8142127475 -1.1959160149 -0.7123832378
| 15> H -3.5464333079 -1.4776915263 1.0091061624
| 16> H -4.5426672478 -0.1211391809 0.4810748132
| 17> H -2.300599602 0.687196644 1.1634114295
| 18> H -2.5485514941 0.9563575676 -0.5570706278
| 19> H -1.2982310102 -1.1560232228 -1.0547244074
| 20> H -0.9559741983 -1.3583629911 0.6635724574
| 21> H 2.6819834097 0.3203543302 -1.1995226722
| 22> H 2.2781268922 1.3235050592 0.2093784963
| 23> H 3.1724493445 -0.4625545861 1.7251596986
| 24> H 3.5464186115 -1.4695767149 0.3231120468
| 25> H 4.4157878939 0.0528580245 0.5751566077
| 26> *
| 27>
| 28>                          ****END OF INPUT****

CARTESIAN COORDINATES (ANGSTROEM)
---------------------------------
  C     -3.660040   -0.710067    0.247774
  C     -2.427018    0.182958    0.203468
  C     -1.166243   -0.620607   -0.110778
  C      0.043915    0.260991   -0.273600
  O      0.022554    1.426945   -0.610404
  O      1.163248   -0.400978   -0.010158
  C      2.415906    0.294372   -0.138035
  C      3.458269   -0.446948    0.677416
  H     -3.814213   -1.195916   -0.712383
  H     -3.546433   -1.477692    1.009106
  H     -4.542667   -0.121139    0.481075
  H     -2.300600    0.687197    1.163411
  H     -2.548551    0.956358   -0.557071
  H     -1.298231   -1.156023   -1.054724
  H     -0.955974   -1.358363    0.663572
  H      2.681983    0.320354   -1.199523
  H      2.278127    1.323505    0.209378
  H      3.172449   -0.462555    1.725160
  H      3.546419   -1.469577    0.323112
  H      4.415788    0.052858    0.575157

 Total Charge           Charge          ....    0
 Multiplicity           Mult            ....    1
 Number of Electrons    NEL             ....   64
 Basis Dimension        Dim             ....  222

ORBITAL ENERGIES
----------------

  NO   OCC          E(Eh)            E(eV)
   0   2.0000     -18.995211      -516.8860
   1   2.0000     -18.927227      -515.0360
   2   2.0000     -10.151021      -276.2233
   3   2.0000     -10.090536      -274.5774
   4   2.0000     -10.041231      -273.2358
   5   2.0000     -10.031544      -272.9722
   6   2.0000     -10.029354      -272.9126
   7   2.0000     -10.019426      -272.6424
   8   2.0000      -1.070327       -29.1251
   9   2.0000      -0.974167       -26.5084
  10   2.0000      -0.771376       -20.9902
  11   2.0000      -0.743209       -20.2237
  12   2.0000      -0.680308       -18.5121
  13   2.0000      -0.615139       -16.7388
  14   2.0000      -0.562790       -15.3143
  15   2.0000      -0.528840       -14.3905
  16   2.0000      -0.468754       -12.7554
  17   2.0000      -0.461305       -12.5527
  18   2.0000      -0.444087       -12.0842
  19   2.0000      -0.428244       -11.6531
  20   2.0000      -0.398547       -10.8450
  21   2.0000      -0.384029       -10.4500
  22   2.0000      -0.374763       -10.1978
  23   2.0000      -0.370097       -10.0709
  24   2.0000      -0.357102        -9.7172
  25   2.0000      -0.330084        -8.9820
  26   2.0000      -0.325314        -8.8522
  27   2.0000      -0.313584        -8.5331
  28   2.0000      -0.306812        -8.3488
  29   2.0000      -0.302388        -8.2284
  30   2.0000      -0.270681        -7.3656
  31   2.0000      -0.234695        -6.3864
  32   0.0000      -0.012203        -0.3321
  33   0.0000       0.078876         2.1463
  34   0.0000       0.095035         2.5860
  35   0.0000       0.102848         2.7986
  36   0.0000       0.118415         3.2222

MULLIKEN ATOMIC CHARGES
-----------------------
   0 C :   -0.466142
   1 C :   -0.230089
   2 C :   -0.319770
   3 C :    0.375499
   4 O :   -0.431499
   5 O :   -0.166060
   6 C :   -0.154681
   7 C :   -0.440543
   8 H :    0.142297
   9 H :    0.139624
  10 H :    0.150187
  11 H :    0.139906
  12 H :    0.164203
  13 H :    0.166179
  14 H :    0.163141
  15 H :    0.146138
  16 H :    0.170872
  17 H :    0.151973
  18 H :    0.152017
  19 H :    0.146750
Sum of atomic charges:   -0.0000000

LOEWDIN ATOMIC CHARGES
----------------------
   0 C :   -0.421754
   1 C :   -0.295505
   2 C :   -0.231991
   3 C :    0.361717
   4 O :   -0.435787
   5 O :   -0.599034
   6 C :    0.032778
   7 C :   -0.386775
   8 H :    0.149778
   9 H :    0.149481
  10 H :    0.152620
  11 H :    0.157237
  12 H :    0.167615
  13 H :    0.182044
  14 H :    0.178943
  15 H :    0.174694
  16 H :    0.187003
  17 H :    0.158783
  18 H :    0.158942
  19 H :    0.159212

  Mayer bond orders larger than 0.100000
B(  0-C ,  1-C ) :   0.8810 B(  0-C ,  8-H ) :   0.9876 B(  0-C ,  9-H ) :   0.9785
B(  0-C , 10-H ) :   0.9756 B(  1-C ,  2-C ) :   0.9435 B(  1-C , 11-H ) :   0.9627
B(  1-C , 12-H ) :   0.9646 B(  2-C ,  3-C ) :   0.9953 B(  2-C , 13-H ) :   0.9410
B(  2-C , 14-H ) :   0.9704 B(  3-C ,  4-O ) :   1.8128 B(  3-C ,  5-O ) :   1.0902
B(  5-O ,  6-C ) :   0.7894 B(  6-C ,  7-C ) :   0.9460 B(  6-C , 15-H ) :   0.9450
B(  6-C , 16-H ) :   0.9632 B(  7-C , 17-H ) :   0.9746 B(  7-C , 18-H ) :   0.9693
B(  7-C , 19-H ) :   0.9680

Dispersion correction           -0.004782110
FINAL SINGLE POINT ENERGY      -386.236079520844

DIPOLE MOMENT
-------------

Method             : SCF
Type of density    : Electron Density
Multiplicity       :   1
Irrep              :   0
Energy             :  -386.2429776723960799 Eh
Relativity type    :
Basis              : AO
                                X                 Y                 Z
Electronic contribution:      3.048329882       2.977627580      -2.206862079
Nuclear contribution   :     -2.714267582      -3.644568139       2.454677981
                        -----------------------------------------
Total Dipole Moment    :      0.334062299      -0.666940559       0.247815903
                        -----------------------------------------
Magnitude (a.u.)       :      0.786015299
Magnitude (Debye)      :      1.997892115

Rotational constants in cm-1:             0.196777             0.027354             0.025012
Rotational constants in MHz :          5899.227599           820.050453           749.828817

                             ****ORCA TERMINATED NORMALLY****
TOTAL RUN TIME: 0 days 0 hours 0 minutes 28 seconds 744 msec
