                         Program Version 6.0.0  -   RELEASE  -
|  1> ! r2scan-3c def2/J RI DEFGRID2 scfconv6 printgap
|  2> %output
|  3>     printlevel normal
|  4> end
|  5> %cpcm
|  6>     smd true
|  7>     smdsolvent "water"
|  8> end
|  9> * xyz 0 1
| 10> C -3.6600397206 -0.7100673678 0.2477735054
| 11> C -2.4270184241 0.1829577422 0.203468074
| 12> C -1.1662427725 -0.6206071014 -0.1107782655
| 13> C 0.0439151416 0.2609905449 -0.2735999176
| 14> O 0.0225540198 1.426945385 -0.6104038235
| 15> O 1.1632479975 -0.4009775893 -0.0101580074
| 16> C 2.4159062941 0.2943722341 -0.1380353949
| 17> C 3.4582689826 -0.4469482499 0.6774161624
| 18> H -3.8142127475 -1.1959160149 -0.7123832378
| 19> H -3.5464333079 -1.4776915263 1.0091061624
| 20> H -4.5426672478 -0.1211391809 0.4810748132
| 21> H -2.300599602 0.687196644 1.1634114295
| 22> H -2.5485514941 0.9563575676 -0.5570706278
| 23> H -1.2982310102 -1.1560232228 -1.0547244074
| 24> H -0.9559741983 -1.3583629911 0.6635724574
| 25> H 2.6819834097 0.3203543302 -1.1995226722
| 26> H 2.2781268922 1.3235050592 0.2093784963
| 27> H 3.1724493445 -0.4625545861 1.7251596986
| 28> H 3.5464186115 -1.4695767149 0.3231120468
| 29> H 4.4157878939 0.0528580245 0.5751566077
| 30> *
| 31>
| 32>                          ****END OF INPUT****

CARTESIAN COORDINATES (ANGSTROEM)
---------------------------------
  C     -3.660040   -0.710067    0.247774
  C     -2.427018    0.182958    0.203468
  C     -1.166243   -0.620607   -0.110778
  C      0.043915    0.260991   -0.273600
  O      0.022554    1.426945   -0.610404
  O      1.163248   -0.400978   -0.010158
  C      2.415906    0.294372   -0.138035
  C      3.458269   -0.446948    0.677416
  H     -3.814213   -1.195916   -0.712383
  H     -3.546433   -1.477692    1.009106
  H     -4.542667   -0.121139    0.481075
  H     -2.300600    0.687197    1.163411
  H     -2.548551    0.956358   -0.557071
  H     -1.298231   -1.156023   -1.054724
  H     -0.955974   -1.358363    0.663572
  H      2.681983    0.320354   -1.199523
  H      2.278127    1.323505    0.209378
  H      3.172449   -0.462555    1.725160
  H      3.546419   -1.469577    0.323112
  H      4.415788    0.052858    0.575157

 Total Charge           Charge          ....    0
 Multiplicity           Mult            ....    1
 Number of Electrons    NEL             ....   64
 Basis Dimension        Dim             ....  222

ORBITAL ENERGIES
----------------

  NO   OCC          E(Eh)            E(eV)
   0   2.0000     -19.001510      -517.0574
   1   2.0000     -18.943462      -515.4778
   2   2.0000     -10.162011      -276.5224
   3   2.0000     -10.083202      -274.3779
   4   2.0000     -10.035340      -273.0755
   5   2.0000     -10.024807      -272.7889
   6   2.0000     -10.018621      -272.6205
   7   2.0000     -10.010740      -272.4061
   8   2.0000      -1.078237       -29.3403
   9   2.0000      -0.988288       -26.8927
  10   2.0000      -0.767162       -20.8755
  11   2.0000      -0.736007       -20.0278
  12   2.0000      -0.674129       -18.3440
  13   2.0000      -0.608852       -16.5677
  14   2.0000      -0.556979       -15.1562
  15   2.0000      -0.527973       -14.3669
  16   2.0000      -0.470323       -12.7981
  17   2.0000      -0.462482       -12.5848
  18   2.0000      -0.448023       -12.1913
  19   2.0000      -0.430188       -11.7060
  20   2.0000      -0.394733       -10.7412
  21   2.0000      -0.377694       -10.2776
  22   2.0000      -0.372237       -10.1291
  23   2.0000      -0.360600        -9.8124
  24   2.0000      -0.349267        -9.5040
  25   2.0000      -0.327971        -8.9246
  26   2.0000      -0.320773        -8.7287
  27   2.0000      -0.311172        -8.4674
  28   2.0000      -0.304533        -8.2868
  29   2.0000      -0.296847        -8.0776
  30   2.0000      -0.276511        -7.5242
  31   2.0000      -0.251493        -6.8435
  32   0.0000      -0.020586        -0.5602
  33   0.0000       0.081511         2.2180
  34   0.0000       0.102019         2.7761
  35   0.0000       0.113348         3.0844
  36   0.0000       0.126952         3.4545

MULLIKEN ATOMIC CHARGES
-----------------------
   0 C :   -0.514037
   1 C :   -0.239660
   2 C :   -0.329798
   3 C :    0.420927
   4 O :   -0.518026
   5 O :   -0.184376
   6 C :   -0.153797
   7 C :   -0.487801
   8 H :    0.157662
   9 H :    0.155405
  10 H :    0.160163
  11 H :    0.155974
  12 H :    0.154465
  13 H :    0.198584
  14 H :    0.182003
  15 H :    0.171222
  16 H :    0.172860
  17 H :    0.165417
  18 H :    0.164294
  19 H :    0.168519
Sum of atomic charges:   -0.0000000

LOEWDIN ATOMIC CHARGES
----------------------
   0 C :   -0.426683
   1 C :   -0.297679
   2 C :   -0.228741
   3 C :    0.373432
   4 O :   -0.497446
   5 O :   -0.601508
   6 C :    0.035732
   7 C :   -0.390117
   8 H :    0.154273
   9 H :    0.154443
  10 H :    0.155045
  11 H :    0.160071
  12 H :    0.162684
  13 H :    0.194497
  14 H :    0.187921
  15 H :    0.183308
  16 H :    0.188391
  17 H :    0.162066
  18 H :    0.162332
  19 H :    0.167978

  Mayer bond orders larger than 0.100000
B(  0-C ,  1-C ) :   0.8827 B(  0-C ,  8-H ) :   0.9842 B(  0-C ,  9-H ) :   0.9765
B(  0-C , 10-H ) :   0.9724 B(  1-C ,  2-C ) :   0.9267 B(  1-C , 11-H ) :   0.9648
B(  1-C , 12-H ) :   0.9643 B(  2-C ,  3-C ) :   1.0001 B(  2-C , 13-H ) :   0.9271
B(  2-C , 14-H ) :   0.9605 B(  3-C ,  4-O ) :   1.7494 B(  3-C ,  5-O ) :   1.1160
B(  5-O ,  6-C ) :   0.7769 B(  6-C ,  7-C ) :   0.9438 B(  6-C , 15-H ) :   0.9365
B(  6-C , 16-H ) :   0.9580 B(  7-C , 17-H ) :   0.9730 B(  7-C , 18-H ) :   0.9665
B(  7-C , 19-H ) :   0.9616

Dispersion correction           -0.004782110
FINAL SINGLE POINT ENERGY      -386.241387871536

DIPOLE MOMENT
-------------

Method             : SCF
Type of density    : Electron Density
Multiplicity       :   1
Irrep              :   0
Energy             :  -386.2482860230887241 Eh
Relativity type    :
Basis              : AO
                                X                 Y                 Z
Electronic contribution:      3.153135677       2.639322742      -2.121590445
Nuclear contribution   :     -2.714267582      -3.644568139       2.454677981
                        -----------------------------------------
Total Dipole Moment    :      0.438868094      -1.005245397       0.333087537
                        -----------------------------------------
Magnitude (a.u.)       :      1.146329280
Magnitude (Debye)      :      2.913737472

Rotational constants in cm-1:             0.196777             0.027354             0.025012
Rotational constants in MHz :          5899.227599           820.050453           749.828817

                             ****ORCA TERMINATED NORMALLY****
TOTAL RUN TIME: 0 days 0 hours 0 minutes 38 seconds 325 msec
