                         Program Version 6.0.0  -   RELEASE  -
|  1> ! r2scan-3c def2/J RI DEFGRID2 scfconv6 printgap
|  2> %output
|  3>     printlevel normal
|  4> end
|  5> * xyz 0 1
|  6> C -3.6462468858 -0.618171812 0.2460965436
|  7> C -2.3461313642 -0.1734968785 -0.4111642676
|  8> C -1.1812060755 -0.2138085953 0.5738410395
|  9> C 0.1093214854 0.2536864328 -0.0456399793
| 10> O 0.2293771204 0.6945251149 -1.1687147943
| 11> O 1.1208217657 0.1364555505 0.8105300275
| 12> C 2.4331475341 0.5325002086 0.3767959137
| 13> C 3.1397305296 -0.6035749448 -0.3468346036
| 14> H -3.8950785272 0.0347394928 1.0789315145
| 15> H -4.4611441086 -0.5860810169 -0.4716383363
| 16> H -3.5560113472 -1.6350736272 0.6196641651
| 17> H -2.4495769514 0.8421612892 -0.7973458143
| 18> H -2.1171289031 -0.8192066601 -1.260907435
| 19> H -1.024474929 -1.2251259626 0.953141399
| 20> H -1.383543011 0.4266061013 1.435039002
| 21> H 2.3360024991 1.40405269 -0.277699091
| 22> H 2.954538775 0.8036472088 1.2951943085
| 23> H 2.6061399123 -0.8508409976 -1.2619122159
| 24> H 4.1490444177 -0.2959678627 -0.5999009127
| 25> H 3.1808000779 -1.4839225274 0.2888041474
| 26> *
| 27>
| 28>                          ****END OF INPUT****

CARTESIAN COORDINATES (ANGSTROEM)
---------------------------------
  C     -3.646247   -0.618172    0.246097
  C     -2.346131   -0.173497   -0.411164
  C     -1.181206   -0.213809    0.573841
  C      0.109321    0.253686   -0.045640
  O      0.229377    0.694525   -1.168715
  O      1.120822    0.136456    0.810530
  C      2.433148    0.532500    0.376796
  C      3.139731   -0.603575   -0.346835
  H     -3.895079    0.034739    1.078932
  H     -4.461144   -0.586081   -0.471638
  H     -3.556011   -1.635074    0.619664
  H     -2.449577    0.842161   -0.797346
  H     -2.117129   -0.819207   -1.260907
  H     -1.024475   -1.225126    0.953141
  H     -1.383543    0.426606    1.435039
  H      2.336002    1.404053   -0.277699
  H      2.954539    0.803647    1.295194
  H      2.606140   -0.850841   -1.261912
  H      4.149044   -0.295968   -0.599901
  H      3.180800   -1.483923    0.288804

 Total Charge           Charge          ....    0
 Multiplicity           Mult            ....    1
 Number of Electrons    NEL             ....   64
 Basis Dimension        Dim             ....  222

ORBITAL ENERGIES
----------------

  NO   OCC          E(Eh)            E(eV)
   0   2.0000     -18.994042      -516.8542
   1   2.0000     -18.929048      -515.0856
   2   2.0000     -10.151792      -276.2443
   3   2.0000     -10.090193      -274.5681
   4   2.0000     -10.041841      -273.2524
   5   2.0000     -10.028304      -272.8840
   6   2.0000     -10.027921      -272.8736
   7   2.0000     -10.019250      -272.6377
   8   2.0000      -1.069434       -29.1008
   9   2.0000      -0.975782       -26.5524
  10   2.0000      -0.770852       -20.9760
  11   2.0000      -0.739305       -20.1175
  12   2.0000      -0.680225       -18.5099
  13   2.0000      -0.621692       -16.9171
  14   2.0000      -0.561958       -15.2917
  15   2.0000      -0.517883       -14.0923
  16   2.0000      -0.473760       -12.8917
  17   2.0000      -0.457804       -12.4575
  18   2.0000      -0.443476       -12.0676
  19   2.0000      -0.418611       -11.3910
  20   2.0000      -0.411528       -11.1983
  21   2.0000      -0.386969       -10.5300
  22   2.0000      -0.376870       -10.2552
  23   2.0000      -0.364643        -9.9224
  24   2.0000      -0.351080        -9.5534
  25   2.0000      -0.336710        -9.1624
  26   2.0000      -0.321414        -8.7461
  27   2.0000      -0.312481        -8.5030
  28   2.0000      -0.304754        -8.2928
  29   2.0000      -0.302711        -8.2372
  30   2.0000      -0.270005        -7.3472
  31   2.0000      -0.236678        -6.4403
  32   0.0000      -0.012269        -0.3339
  33   0.0000       0.077163         2.0997
  34   0.0000       0.089842         2.4447
  35   0.0000       0.104243         2.8366
  36   0.0000       0.123371         3.3571

MULLIKEN ATOMIC CHARGES
-----------------------
   0 C :   -0.466398
   1 C :   -0.230135
   2 C :   -0.300771
   3 C :    0.376294
   4 O :   -0.430832
   5 O :   -0.177134
   6 C :   -0.138537
   7 C :   -0.469377
   8 H :    0.140795
   9 H :    0.150436
  10 H :    0.139752
  11 H :    0.152244
  12 H :    0.146619
  13 H :    0.160694
  14 H :    0.161450
  15 H :    0.166731
  16 H :    0.147881
  17 H :    0.172364
  18 H :    0.146505
  19 H :    0.151420
Sum of atomic charges:    0.0000000

LOEWDIN ATOMIC CHARGES
----------------------
   0 C :   -0.422185
   1 C :   -0.297121
   2 C :   -0.232316
   3 C :    0.364477
   4 O :   -0.436326
   5 O :   -0.596892
   6 C :    0.026425
   7 C :   -0.391065
   8 H :    0.149637
   9 H :    0.152588
  10 H :    0.149513
  11 H :    0.163426
  12 H :    0.160916
  13 H :    0.181153
  14 H :    0.182025
  15 H :    0.187540
  16 H :    0.177383
  17 H :    0.165075
  18 H :    0.158951
  19 H :    0.156797

  Mayer bond orders larger than 0.100000
B(  0-C ,  1-C ) :   0.8763 B(  0-C ,  8-H ) :   0.9843 B(  0-C ,  9-H ) :   0.9760
B(  0-C , 10-H ) :   0.9816 B(  1-C ,  2-C ) :   0.9684 B(  1-C , 11-H ) :   0.9645
B(  1-C , 12-H ) :   0.9630 B(  2-C ,  3-C ) :   1.0040 B(  2-C , 13-H ) :   0.9476
B(  2-C , 14-H ) :   0.9440 B(  3-C ,  4-O ) :   1.8392 B(  3-C ,  5-O ) :   1.0730
B(  5-O ,  6-C ) :   0.8162 B(  6-C ,  7-C ) :   0.9369 B(  6-C , 15-H ) :   0.9688
B(  6-C , 16-H ) :   0.9620 B(  7-C , 17-H ) :   0.9720 B(  7-C , 18-H ) :   0.9649
B(  7-C , 19-H ) :   0.9739

Dispersion correction           -0.004901283
FINAL SINGLE POINT ENERGY      -386.236956538859

DIPOLE MOMENT
-------------

Method             : SCF
Type of density    : Electron Density
Multiplicity       :   1
Irrep              :   0
Energy             :  -386.2437523723451136 Eh
Relativity type    :
Basis              : AO
                                X                 Y                 Z
Electronic contribution:      3.642810384       2.906996511      -0.327766547
Nuclear contribution   :     -3.414074521      -3.163383494       0.934141450
                        -----------------------------------------
Total Dipole Moment    :      0.228735863      -0.256386983       0.606374903
                        -----------------------------------------
Magnitude (a.u.)       :      0.696954017
Magnitude (Debye)      :      1.771516328

Rotational constants in cm-1:             0.200602             0.028341             0.027098
Rotational constants in MHz :          6013.902592           849.637672           812.386225

                             ****ORCA TERMINATED NORMALLY****
TOTAL RUN TIME: 0 days 0 hours 0 minutes 32 seconds 191 msec
