                         Program Version 6.0.0  -   RELEASE  -
|  1> ! r2scan-3c def2/J RI DEFGRID2 scfconv6 printgap
|  2> %output
|  3>     printlevel normal
|  4> end
|  5> %cpcm
|  6>     smd true
|  7>     smdsolvent "water"
|  8> end
|  9> * xyz 0 1
| 10> C -3.6462468858 -0.618171812 0.2460965436
| 11> C -2.3461313642 -0.1734968785 -0.4111642676
| 12> C -1.1812060755 -0.2138085953 0.5738410395
| 13> C 0.1093214854 0.2536864328 -0.0456399793
| 14> O 0.2293771204 0.6945251149 -1.1687147943
| 15> O 1.1208217657 0.1364555505 0.8105300275
| 16> C 2.4331475341 0.5325002086 0.3767959137
| 17> C 3.1397305296 -0.6035749448 -0.3468346036
| 18> H -3.8950785272 0.0347394928 1.0789315145
| 19> H -4.4611441086 -0.5860810169 -0.4716383363
| 20> H -3.5560113472 -1.6350736272 0.6196641651
| 21> H -2.4495769514 0.8421612892 -0.7973458143
| 22> H -2.1171289031 -0.8192066601 -1.260907435
| 23> H -1.024474929 -1.2251259626 0.953141399
| 24> H -1.383543011 0.4266061013 1.435039002
| 25> H 2.3360024991 1.40405269 -0.277699091
| 26> H 2.954538775 0.8036472088 1.2951943085
| 27> H 2.6061399123 -0.8508409976 -1.2619122159
| 28> H 4.1490444177 -0.2959678627 -0.5999009127
| 29> H 3.1808000779 -1.4839225274 0.2888041474
| 30> *
| 31>
| 32>                          ****END OF INPUT****

CARTESIAN COORDINATES (ANGSTROEM)
---------------------------------
  C     -3.646247   -0.618172    0.246097
  C     -2.346131   -0.173497   -0.411164
  C     -1.181206   -0.213809    0.573841
  C      0.109321    0.253686   -0.045640
  O      0.229377    0.694525   -1.168715
  O      1.120822    0.136456    0.810530
  C      2.433148    0.532500    0.376796
  C      3.139731   -0.603575   -0.346835
  H     -3.895079    0.034739    1.078932
  H     -4.461144   -0.586081   -0.471638
  H     -3.556011   -1.635074    0.619664
  H     -2.449577    0.842161   -0.797346
  H     -2.117129   -0.819207   -1.260907
  H     -1.024475   -1.225126    0.953141
  H     -1.383543    0.426606    1.435039
  H      2.336002    1.404053   -0.277699
  H      2.954539    0.803647    1.295194
  H      2.606140   -0.850841   -1.261912
  H      4.149044   -0.295968   -0.599901
  H      3.180800   -1.483923    0.288804

 Total Charge           Charge          ....    0
 Multiplicity           Mult            ....    1
 Number of Electrons    NEL             ....   64
 Basis Dimension        Dim             ....  222

ORBITAL ENERGIES
----------------

  NO   OCC          E(Eh)            E(eV)
   0   2.0000     -18.999939      -517.0146
   1   2.0000     -18.944289      -515.5003
   2   2.0000     -10.162105      -276.5249
   3   2.0000     -10.082808      -274.3672
   4   2.0000     -10.035358      -273.0760
   5   2.0000     -10.023804      -272.7616
   6   2.0000     -10.017912      -272.6013
   7   2.0000     -10.010534      -272.4005
   8   2.0000      -1.077012       -29.3070
   9   2.0000      -0.988858       -26.9082
  10   2.0000      -0.766507       -20.8577
  11   2.0000      -0.733116       -19.9491
  12   2.0000      -0.674323       -18.3493
  13   2.0000      -0.616739       -16.7823
  14   2.0000      -0.556305       -15.1378
  15   2.0000      -0.516713       -14.0605
  16   2.0000      -0.474122       -12.9015
  17   2.0000      -0.459363       -12.4999
  18   2.0000      -0.450321       -12.2539
  19   2.0000      -0.417070       -11.3491
  20   2.0000      -0.409257       -11.1364
  21   2.0000      -0.380588       -10.3563
  22   2.0000      -0.372064       -10.1244
  23   2.0000      -0.358383        -9.7521
  24   2.0000      -0.346215        -9.4210
  25   2.0000      -0.336817        -9.1653
  26   2.0000      -0.316821        -8.6211
  27   2.0000      -0.306732        -8.3466
  28   2.0000      -0.302560        -8.2331
  29   2.0000      -0.297819        -8.1041
  30   2.0000      -0.275901        -7.5077
  31   2.0000      -0.252367        -6.8673
  32   0.0000      -0.020100        -0.5470
  33   0.0000       0.080232         2.1832
  34   0.0000       0.095735         2.6051
  35   0.0000       0.113373         3.0850
  36   0.0000       0.132171         3.5966

MULLIKEN ATOMIC CHARGES
-----------------------
   0 C :   -0.515890
   1 C :   -0.249655
   2 C :   -0.303175
   3 C :    0.414029
   4 O :   -0.512236
   5 O :   -0.197995
   6 C :   -0.144969
   7 C :   -0.494470
   8 H :    0.156660
   9 H :    0.160029
  10 H :    0.155728
  11 H :    0.153532
  12 H :    0.154588
  13 H :    0.186409
  14 H :    0.189438
  15 H :    0.171020
  16 H :    0.173355
  17 H :    0.168381
  18 H :    0.169784
  19 H :    0.165436
Sum of atomic charges:    0.0000000

LOEWDIN ATOMIC CHARGES
----------------------
   0 C :   -0.426955
   1 C :   -0.300307
   2 C :   -0.229271
   3 C :    0.375930
   4 O :   -0.494998
   5 O :   -0.600878
   6 C :    0.030763
   7 C :   -0.394015
   8 H :    0.154385
   9 H :    0.154837
  10 H :    0.154379
  11 H :    0.161163
  12 H :    0.160497
  13 H :    0.192140
  14 H :    0.193444
  15 H :    0.188876
  16 H :    0.188506
  17 H :    0.162246
  18 H :    0.167499
  19 H :    0.161757

  Mayer bond orders larger than 0.100000
B(  0-C ,  1-C ) :   0.8790 B(  0-C ,  8-H ) :   0.9815 B(  0-C ,  9-H ) :   0.9728
B(  0-C , 10-H ) :   0.9792 B(  1-C ,  2-C ) :   0.9437 B(  1-C , 11-H ) :   0.9660
B(  1-C , 12-H ) :   0.9657 B(  2-C ,  3-C ) :   1.0133 B(  2-C , 13-H ) :   0.9341
B(  2-C , 14-H ) :   0.9301 B(  3-C ,  4-O ) :   1.7773 B(  3-C ,  5-O ) :   1.0945
B(  5-O ,  6-C ) :   0.7975 B(  6-C ,  7-C ) :   0.9362 B(  6-C , 15-H ) :   0.9648
B(  6-C , 16-H ) :   0.9526 B(  7-C , 17-H ) :   0.9697 B(  7-C , 18-H ) :   0.9601
B(  7-C , 19-H ) :   0.9699

Dispersion correction           -0.004901283
FINAL SINGLE POINT ENERGY      -386.241850596309

DIPOLE MOMENT
-------------

Method             : SCF
Type of density    : Electron Density
Multiplicity       :   1
Irrep              :   0
Energy             :  -386.2486464297952580 Eh
Relativity type    :
Basis              : AO
                                X                 Y                 Z
Electronic contribution:      3.713868040       2.787749733       0.032606134
Nuclear contribution   :     -3.414074521      -3.163383494       0.934141450
                        -----------------------------------------
Total Dipole Moment    :      0.299793519      -0.375633761       0.966747584
                        -----------------------------------------
Magnitude (a.u.)       :      1.079619270
Magnitude (Debye)      :      2.744174101

Rotational constants in cm-1:             0.200602             0.028341             0.027098
Rotational constants in MHz :          6013.902592           849.637672           812.386225

                             ****ORCA TERMINATED NORMALLY****
TOTAL RUN TIME: 0 days 0 hours 0 minutes 38 seconds 625 msec
