                         Program Version 6.0.0  -   RELEASE  -
|  1> ! r2scan-3c def2/J RI DEFGRID2 scfconv6 printgap
|  2> %output
|  3>     printlevel normal
|  4> end
|  5> * xyz 0 1
|  6> C -2.5652247729 -0.5696887222 1.0867236926
|  7> C -2.0893877098 -0.8151674106 -0.3400145217
|  8> C -1.3760530521 0.4127925996 -0.9197983147
|  9> C -0.104780215 0.7092160667 -0.1662526792
| 10> O 0.1118174967 1.7298467108 0.4562641739
| 11> O 0.7652728444 -0.2846275651 -0.2650629734
| 12> C 2.0339269816 -0.1607875724 0.3979722816
| 13> C 3.051475152 -1.002165857 -0.3497272032
| 14> H -3.2703149585 0.257640298 1.116727556
| 15> H -3.054289085 -1.4558636242 1.482240278
| 16> H -1.7267300195 -0.3196536388 1.7344204977
| 17> H -2.9455776739 -1.0497258721 -0.9732127031
| 18> H -1.4043824583 -1.6637569714 -0.36171995
| 19> H -2.0172057078 1.2922857693 -0.8627476124
| 20> H -1.1110992958 0.2199950398 -1.9598292315
| 21> H 2.3131661156 0.8976641889 0.419902842
| 22> H 1.9099178901 -0.5096832594 1.4281032188
| 23> H 2.7262975142 -2.0378249991 -0.3781367583
| 24> H 3.1613231893 -0.6411627302 -1.3683160837
| 25> H 4.0091858604 -0.9402511779 0.1563991911
| 26> *
| 27>
| 28>                          ****END OF INPUT****

CARTESIAN COORDINATES (ANGSTROEM)
---------------------------------
  C     -2.565225   -0.569689    1.086724
  C     -2.089388   -0.815167   -0.340015
  C     -1.376053    0.412793   -0.919798
  C     -0.104780    0.709216   -0.166253
  O      0.111817    1.729847    0.456264
  O      0.765273   -0.284628   -0.265063
  C      2.033927   -0.160788    0.397972
  C      3.051475   -1.002166   -0.349727
  H     -3.270315    0.257640    1.116728
  H     -3.054289   -1.455864    1.482240
  H     -1.726730   -0.319654    1.734420
  H     -2.945578   -1.049726   -0.973213
  H     -1.404382   -1.663757   -0.361720
  H     -2.017206    1.292286   -0.862748
  H     -1.111099    0.219995   -1.959829
  H      2.313166    0.897664    0.419903
  H      1.909918   -0.509683    1.428103
  H      2.726298   -2.037825   -0.378137
  H      3.161323   -0.641163   -1.368316
  H      4.009186   -0.940251    0.156399

 Total Charge           Charge          ....    0
 Multiplicity           Mult            ....    1
 Number of Electrons    NEL             ....   64
 Basis Dimension        Dim             ....  222

ORBITAL ENERGIES
----------------

  NO   OCC          E(Eh)            E(eV)
   0   2.0000     -18.996425      -516.9190
   1   2.0000     -18.925834      -514.9981
   2   2.0000     -10.150414      -276.2068
   3   2.0000     -10.091331      -274.5991
   4   2.0000     -10.040433      -273.2141
   5   2.0000     -10.036520      -273.1076
   6   2.0000     -10.032414      -272.9959
   7   2.0000     -10.019610      -272.6474
   8   2.0000      -1.071500       -29.1570
   9   2.0000      -0.973086       -26.4790
  10   2.0000      -0.776085       -21.1183
  11   2.0000      -0.741547       -20.1785
  12   2.0000      -0.677644       -18.4396
  13   2.0000      -0.616952       -16.7881
  14   2.0000      -0.569535       -15.4978
  15   2.0000      -0.532906       -14.5011
  16   2.0000      -0.473450       -12.8832
  17   2.0000      -0.448515       -12.2047
  18   2.0000      -0.441201       -12.0057
  19   2.0000      -0.424833       -11.5603
  20   2.0000      -0.410646       -11.1742
  21   2.0000      -0.382897       -10.4191
  22   2.0000      -0.375268       -10.2116
  23   2.0000      -0.370488       -10.0815
  24   2.0000      -0.355578        -9.6758
  25   2.0000      -0.337373        -9.1804
  26   2.0000      -0.324845        -8.8395
  27   2.0000      -0.312471        -8.5028
  28   2.0000      -0.309549        -8.4232
  29   2.0000      -0.308075        -8.3831
  30   2.0000      -0.270173        -7.3518
  31   2.0000      -0.230524        -6.2729
  32   0.0000      -0.014173        -0.3857
  33   0.0000       0.071924         1.9572
  34   0.0000       0.094576         2.5736
  35   0.0000       0.114914         3.1270
  36   0.0000       0.118868         3.2346

MULLIKEN ATOMIC CHARGES
-----------------------
   0 C :   -0.480399
   1 C :   -0.229683
   2 C :   -0.315102
   3 C :    0.357015
   4 O :   -0.423915
   5 O :   -0.166112
   6 C :   -0.148887
   7 C :   -0.442698
   8 H :    0.149123
   9 H :    0.147250
  10 H :    0.155237
  11 H :    0.145677
  12 H :    0.152311
  13 H :    0.168896
  14 H :    0.158366
  15 H :    0.176257
  16 H :    0.145541
  17 H :    0.151653
  18 H :    0.152587
  19 H :    0.146880
Sum of atomic charges:    0.0000000

LOEWDIN ATOMIC CHARGES
----------------------
   0 C :   -0.414934
   1 C :   -0.293424
   2 C :   -0.230899
   3 C :    0.351389
   4 O :   -0.431437
   5 O :   -0.602261
   6 C :    0.033211
   7 C :   -0.386893
   8 H :    0.153354
   9 H :    0.151636
  10 H :    0.156351
  11 H :    0.153104
  12 H :    0.163613
  13 H :    0.177316
  14 H :    0.179033
  15 H :    0.189825
  16 H :    0.174311
  17 H :    0.158513
  18 H :    0.158785
  19 H :    0.159408

  Mayer bond orders larger than 0.100000
B(  0-C ,  1-C ) :   0.9136 B(  0-C ,  8-H ) :   0.9780 B(  0-C ,  9-H ) :   0.9705
B(  0-C , 10-H ) :   0.9706 B(  1-C ,  2-C ) :   0.8839 B(  1-C , 11-H ) :   0.9640
B(  1-C , 12-H ) :   0.9736 B(  2-C ,  3-C ) :   0.9602 B(  2-C , 13-H ) :   1.0036
B(  2-C , 14-H ) :   0.9455 B(  3-C ,  4-O ) :   1.8436 B(  3-C ,  5-O ) :   1.0526
B(  5-O ,  6-C ) :   0.7883 B(  6-C ,  7-C ) :   0.9485 B(  6-C , 15-H ) :   0.9648
B(  6-C , 16-H ) :   0.9449 B(  7-C , 17-H ) :   0.9689 B(  7-C , 18-H ) :   0.9748
B(  7-C , 19-H ) :   0.9677

Dispersion correction           -0.005095114
FINAL SINGLE POINT ENERGY      -386.235077486626

DIPOLE MOMENT
-------------

Method             : SCF
Type of density    : Electron Density
Multiplicity       :   1
Irrep              :   0
Energy             :  -386.2416845397617635 Eh
Relativity type    :
Basis              : AO
                                X                 Y                 Z
Electronic contribution:      1.484014678       4.714856111      -0.719281882
Nuclear contribution   :     -1.309536049      -5.560978048       0.409841190
                        -----------------------------------------
Total Dipole Moment    :      0.174478629      -0.846121938      -0.309440692
                        -----------------------------------------
Magnitude (a.u.)       :      0.917670239
Magnitude (Debye)      :      2.332532377

Rotational constants in cm-1:             0.116571             0.036803             0.033364
Rotational constants in MHz :          3494.711052          1103.316579          1000.233238

                             ****ORCA TERMINATED NORMALLY****
TOTAL RUN TIME: 0 days 0 hours 0 minutes 30 seconds 765 msec
