                         Program Version 6.0.0  -   RELEASE  -
|  1> ! r2scan-3c def2/J RI DEFGRID2 scfconv6 printgap
|  2> %output
|  3>     printlevel normal
|  4> end
|  5> %cpcm
|  6>     smd true
|  7>     smdsolvent "water"
|  8> end
|  9> * xyz 0 1
| 10> C -2.5652247729 -0.5696887222 1.0867236926
| 11> C -2.0893877098 -0.8151674106 -0.3400145217
| 12> C -1.3760530521 0.4127925996 -0.9197983147
| 13> C -0.104780215 0.7092160667 -0.1662526792
| 14> O 0.1118174967 1.7298467108 0.4562641739
| 15> O 0.7652728444 -0.2846275651 -0.2650629734
| 16> C 2.0339269816 -0.1607875724 0.3979722816
| 17> C 3.051475152 -1.002165857 -0.3497272032
| 18> H -3.2703149585 0.257640298 1.116727556
| 19> H -3.054289085 -1.4558636242 1.482240278
| 20> H -1.7267300195 -0.3196536388 1.7344204977
| 21> H -2.9455776739 -1.0497258721 -0.9732127031
| 22> H -1.4043824583 -1.6637569714 -0.36171995
| 23> H -2.0172057078 1.2922857693 -0.8627476124
| 24> H -1.1110992958 0.2199950398 -1.9598292315
| 25> H 2.3131661156 0.8976641889 0.419902842
| 26> H 1.9099178901 -0.5096832594 1.4281032188
| 27> H 2.7262975142 -2.0378249991 -0.3781367583
| 28> H 3.1613231893 -0.6411627302 -1.3683160837
| 29> H 4.0091858604 -0.9402511779 0.1563991911
| 30> *
| 31>
| 32>                          ****END OF INPUT****

CARTESIAN COORDINATES (ANGSTROEM)
---------------------------------
  C     -2.565225   -0.569689    1.086724
  C     -2.089388   -0.815167   -0.340015
  C     -1.376053    0.412793   -0.919798
  C     -0.104780    0.709216   -0.166253
  O      0.111817    1.729847    0.456264
  O      0.765273   -0.284628   -0.265063
  C      2.033927   -0.160788    0.397972
  C      3.051475   -1.002166   -0.349727
  H     -3.270315    0.257640    1.116728
  H     -3.054289   -1.455864    1.482240
  H     -1.726730   -0.319654    1.734420
  H     -2.945578   -1.049726   -0.973213
  H     -1.404382   -1.663757   -0.361720
  H     -2.017206    1.292286   -0.862748
  H     -1.111099    0.219995   -1.959829
  H      2.313166    0.897664    0.419903
  H      1.909918   -0.509683    1.428103
  H      2.726298   -2.037825   -0.378137
  H      3.161323   -0.641163   -1.368316
  H      4.009186   -0.940251    0.156399

 Total Charge           Charge          ....    0
 Multiplicity           Mult            ....    1
 Number of Electrons    NEL             ....   64
 Basis Dimension        Dim             ....  222

ORBITAL ENERGIES
----------------

  NO   OCC          E(Eh)            E(eV)
   0   2.0000     -19.002114      -517.0738
   1   2.0000     -18.943015      -515.4656
   2   2.0000     -10.162055      -276.5236
   3   2.0000     -10.083420      -274.3838
   4   2.0000     -10.035370      -273.0763
   5   2.0000     -10.028647      -272.8934
   6   2.0000     -10.018634      -272.6209
   7   2.0000     -10.011732      -272.4331
   8   2.0000      -1.079116       -29.3642
   9   2.0000      -0.987991       -26.8846
  10   2.0000      -0.771420       -20.9914
  11   2.0000      -0.733374       -19.9561
  12   2.0000      -0.671923       -18.2839
  13   2.0000      -0.610247       -16.6057
  14   2.0000      -0.563532       -15.3345
  15   2.0000      -0.531040       -14.4503
  16   2.0000      -0.472054       -12.8452
  17   2.0000      -0.454670       -12.3722
  18   2.0000      -0.446222       -12.1423
  19   2.0000      -0.421460       -11.4685
  20   2.0000      -0.406299       -11.0559
  21   2.0000      -0.377266       -10.2659
  22   2.0000      -0.371575       -10.1111
  23   2.0000      -0.363297        -9.8858
  24   2.0000      -0.350186        -9.5291
  25   2.0000      -0.332065        -9.0359
  26   2.0000      -0.318710        -8.6725
  27   2.0000      -0.310809        -8.4575
  28   2.0000      -0.306220        -8.3327
  29   2.0000      -0.302355        -8.2275
  30   2.0000      -0.275800        -7.5049
  31   2.0000      -0.247341        -6.7305
  32   0.0000      -0.023195        -0.6312
  33   0.0000       0.076240         2.0746
  34   0.0000       0.103415         2.8141
  35   0.0000       0.124166         3.3787
  36   0.0000       0.126495         3.4421

MULLIKEN ATOMIC CHARGES
-----------------------
   0 C :   -0.527510
   1 C :   -0.222224
   2 C :   -0.335493
   3 C :    0.396832
   4 O :   -0.513650
   5 O :   -0.180772
   6 C :   -0.145554
   7 C :   -0.488415
   8 H :    0.163136
   9 H :    0.161799
  10 H :    0.161358
  11 H :    0.163366
  12 H :    0.156086
  13 H :    0.178222
  14 H :    0.187760
  15 H :    0.174659
  16 H :    0.172144
  17 H :    0.164465
  18 H :    0.165471
  19 H :    0.168321
Sum of atomic charges:    0.0000000

LOEWDIN ATOMIC CHARGES
----------------------
   0 C :   -0.423062
   1 C :   -0.289828
   2 C :   -0.228974
   3 C :    0.360673
   4 O :   -0.495213
   5 O :   -0.601758
   6 C :    0.036911
   7 C :   -0.390012
   8 H :    0.156133
   9 H :    0.156425
  10 H :    0.156020
  11 H :    0.160236
  12 H :    0.164723
  13 H :    0.181151
  14 H :    0.190570
  15 H :    0.190001
  16 H :    0.183963
  17 H :    0.162193
  18 H :    0.161844
  19 H :    0.168007

  Mayer bond orders larger than 0.100000
B(  0-C ,  1-C ) :   0.8978 B(  0-C ,  8-H ) :   0.9770 B(  0-C ,  9-H ) :   0.9664
B(  0-C , 10-H ) :   0.9695 B(  1-C ,  2-C ) :   0.8757 B(  1-C , 11-H ) :   0.9608
B(  1-C , 12-H ) :   0.9727 B(  2-C ,  3-C ) :   0.9594 B(  2-C , 13-H ) :   0.9987
B(  2-C , 14-H ) :   0.9363 B(  3-C ,  4-O ) :   1.7682 B(  3-C ,  5-O ) :   1.0839
B(  5-O ,  6-C ) :   0.7760 B(  6-C ,  7-C ) :   0.9457 B(  6-C , 15-H ) :   0.9601
B(  6-C , 16-H ) :   0.9362 B(  7-C , 17-H ) :   0.9660 B(  7-C , 18-H ) :   0.9731
B(  7-C , 19-H ) :   0.9614

Dispersion correction           -0.005095114
FINAL SINGLE POINT ENERGY      -386.240629790477

DIPOLE MOMENT
-------------

Method             : SCF
Type of density    : Electron Density
Multiplicity       :   1
Irrep              :   0
Energy             :  -386.2472368436133934 Eh
Relativity type    :
Basis              : AO
                                X                 Y                 Z
Electronic contribution:      1.508384397       4.379062136      -0.871937010
Nuclear contribution   :     -1.309536049      -5.560978048       0.409841190
                        -----------------------------------------
Total Dipole Moment    :      0.198848348      -1.181915913      -0.462095820
                        -----------------------------------------
Magnitude (a.u.)       :      1.284522649
Magnitude (Debye)      :      3.264997101

Rotational constants in cm-1:             0.116571             0.036803             0.033364
Rotational constants in MHz :          3494.711052          1103.316579          1000.233238

                             ****ORCA TERMINATED NORMALLY****
TOTAL RUN TIME: 0 days 0 hours 0 minutes 36 seconds 908 msec
