                         Program Version 6.0.0  -   RELEASE  -
|  1> ! r2scan-3c def2/J RI DEFGRID2 scfconv6 printgap
|  2> %output
|  3>     printlevel normal
|  4> end
|  5> * xyz 0 1
|  6> C -4.4748286023 -1.229894938 -0.2682157493
|  7> C -3.6538335298 -2.3491186353 -0.268527127
|  8> C -2.2828856661 -2.2019975489 -0.1675518781
|  9> C -1.7073153589 -0.9372285241 -0.0663682655
| 10> C -2.536509696 0.1899623399 -0.0669338697
| 11> C -3.9176806615 0.0306709012 -0.1674052559
| 12> C -1.9693882164 1.540230168 0.0377905098
| 13> O -2.6873418148 2.5385631118 0.0554579917
| 14> C -0.5018827747 1.6407490472 0.1158769401
| 15> C 0.0359149469 2.9147129964 0.1831559956
| 16> C 1.4152478376 3.0956424544 0.2501243317
| 17> C 2.2516015744 2.0122119236 0.2532821516
| 18> C 1.747020493 0.6889758199 0.1936905829
| 19> C 0.3324055343 0.4980947064 0.1205917131
| 20> C -0.2380847311 -0.8290796111 0.044063562
| 21> O 0.4404000932 -1.8705991145 0.0662881484
| 22> N 2.5801923812 -0.3542330493 0.2234837821
| 23> C 4.0209302358 -0.2884041207 0.2293048219
| 24> C 4.5905490154 -1.7020741743 0.292880981
| 25> O 4.2753849542 -2.3649757255 -0.9153975237
| 26> H -5.544800136 -1.3416306805 -0.3462375399
| 27> H -4.0836316845 -3.335419276 -0.3470086798
| 28> H -1.6269597874 -3.0599464111 -0.1648065628
| 29> H -4.53171382 0.9191856266 -0.1640508533
| 30> H -0.639622878 3.7562620507 0.1789287025
| 31> H 1.8209931176 4.0939696784 0.29726322
| 32> H 3.3171129681 2.1599988224 0.2999645975
| 33> H 2.1568639255 -1.2703825445 0.0938026901
| 34> H 4.3715045633 0.275091759 1.0993023577
| 35> H 4.3856423427 0.1921107057 -0.6860946766
| 36> H 4.1555624828 -2.231762733 1.1494047121
| 37> H 5.6782772365 -1.6411363853 0.4242705463
| 38> H 4.5766840095 -3.2811348783 -0.8716578798
| 39> *
| 40>
| 41>                          ****END OF INPUT****

CARTESIAN COORDINATES (ANGSTROEM)
---------------------------------
  C     -4.474829   -1.229895   -0.268216
  C     -3.653834   -2.349119   -0.268527
  C     -2.282886   -2.201998   -0.167552
  C     -1.707315   -0.937229   -0.066368
  C     -2.536510    0.189962   -0.066934
  C     -3.917681    0.030671   -0.167405
  C     -1.969388    1.540230    0.037791
  O     -2.687342    2.538563    0.055458
  C     -0.501883    1.640749    0.115877
  C      0.035915    2.914713    0.183156
  C      1.415248    3.095642    0.250124
  C      2.251602    2.012212    0.253282
  C      1.747020    0.688976    0.193691
  C      0.332406    0.498095    0.120592
  C     -0.238085   -0.829080    0.044064
  O      0.440400   -1.870599    0.066288
  N      2.580192   -0.354233    0.223484
  C      4.020930   -0.288404    0.229305
  C      4.590549   -1.702074    0.292881
  O      4.275385   -2.364976   -0.915398
  H     -5.544800   -1.341631   -0.346238
  H     -4.083632   -3.335419   -0.347009
  H     -1.626960   -3.059946   -0.164807
  H     -4.531714    0.919186   -0.164051
  H     -0.639623    3.756262    0.178929
  H      1.820993    4.093970    0.297263
  H      3.317113    2.159999    0.299965
  H      2.156864   -1.270383    0.093803
  H      4.371505    0.275092    1.099302
  H      4.385642    0.192111   -0.686095
  H      4.155562   -2.231763    1.149405
  H      5.678277   -1.641136    0.424271
  H      4.576684   -3.281135   -0.871658

 Total Charge           Charge          ....    0
 Multiplicity           Mult            ....    1
 Number of Electrons    NEL             ....  140
 Basis Dimension        Dim             ....  465

ORBITAL ENERGIES
----------------

  NO   OCC          E(Eh)            E(eV)
   0   2.0000     -18.966402      -516.1020
   1   2.0000     -18.937072      -515.3039
   2   2.0000     -18.934355      -515.2300
   3   2.0000     -14.184509      -385.9801
   4   2.0000     -10.119765      -275.3728
   5   2.0000     -10.118464      -275.3374
   6   2.0000     -10.099448      -274.8200
   7   2.0000     -10.098837      -274.8033
   8   2.0000     -10.083923      -274.3975
   9   2.0000     -10.055596      -273.6267
  10   2.0000     -10.055156      -273.6147
  11   2.0000     -10.053531      -273.5705
  12   2.0000     -10.053042      -273.5572
  13   2.0000     -10.052026      -273.5295
  14   2.0000     -10.050853      -273.4976
  15   2.0000     -10.049823      -273.4696
  16   2.0000     -10.047358      -273.4025
  17   2.0000     -10.047129      -273.3963
  18   2.0000     -10.046165      -273.3700
  19   2.0000     -10.037271      -273.1280
  20   2.0000      -1.004676       -27.3386
  21   2.0000      -1.001282       -27.2463
  22   2.0000      -0.998199       -27.1624
  23   2.0000      -0.925686       -25.1892
  24   2.0000      -0.847253       -23.0549
  25   2.0000      -0.830700       -22.6045
  26   2.0000      -0.770996       -20.9799
  27   2.0000      -0.751112       -20.4388
  28   2.0000      -0.733779       -19.9671
  29   2.0000      -0.728788       -19.8313
  30   2.0000      -0.698239       -19.0000
  31   2.0000      -0.647645       -17.6233
  32   2.0000      -0.629288       -17.1238
  33   2.0000      -0.614442       -16.7198
  34   2.0000      -0.594965       -16.1898
  35   2.0000      -0.569694       -15.5022
  36   2.0000      -0.549251       -14.9459
  37   2.0000      -0.518299       -14.1036
  38   2.0000      -0.517299       -14.0764
  39   2.0000      -0.508260       -13.8305
  40   2.0000      -0.481747       -13.1090
  41   2.0000      -0.468700       -12.7540
  42   2.0000      -0.456617       -12.4252
  43   2.0000      -0.443875       -12.0784
  44   2.0000      -0.441386       -12.0107
  45   2.0000      -0.428081       -11.6487
  46   2.0000      -0.422809       -11.5052
  47   2.0000      -0.411444       -11.1960
  48   2.0000      -0.404143       -10.9973
  49   2.0000      -0.400726       -10.9043
  50   2.0000      -0.398929       -10.8554
  51   2.0000      -0.393770       -10.7150
  52   2.0000      -0.384866       -10.4727
  53   2.0000      -0.376359       -10.2413
  54   2.0000      -0.368929       -10.0391
  55   2.0000      -0.359796        -9.7905
  56   2.0000      -0.351218        -9.5571
  57   2.0000      -0.342872        -9.3300
  58   2.0000      -0.331885        -9.0310
  59   2.0000      -0.327994        -8.9252
  60   2.0000      -0.320042        -8.7088
  61   2.0000      -0.318988        -8.6801
  62   2.0000      -0.289440        -7.8761
  63   2.0000      -0.257329        -7.0023
  64   2.0000      -0.256833        -6.9888
  65   2.0000      -0.248463        -6.7610
  66   2.0000      -0.246955        -6.7200
  67   2.0000      -0.229851        -6.2546
  68   2.0000      -0.218288        -5.9399
  69   2.0000      -0.193800        -5.2736
  70   0.0000      -0.125593        -3.4175
  71   0.0000      -0.075319        -2.0495
  72   0.0000      -0.046548        -1.2666
  73   0.0000      -0.024642        -0.6705
  74   0.0000       0.027237         0.7411

MULLIKEN ATOMIC CHARGES
-----------------------
   0 C :   -0.132891
   1 C :   -0.128024
   2 C :   -0.226246
   3 C :    0.193137
   4 C :    0.138284
   5 C :   -0.216828
   6 C :    0.034594
   7 O :   -0.354617
   8 C :    0.197154
   9 C :   -0.253893
  10 C :   -0.139741
  11 C :   -0.279573
  12 C :    0.284749
  13 C :   -0.133369
  14 C :    0.011721
  15 O :   -0.442733
  16 N :   -0.054792
  17 C :   -0.248040
  18 C :   -0.154505
  19 O :   -0.428942
  20 H :    0.148526
  21 H :    0.148227
  22 H :    0.182252
  23 H :    0.181689
  24 H :    0.184554
  25 H :    0.146730
  26 H :    0.141254
  27 H :    0.336833
  28 H :    0.144993
  29 H :    0.159273
  30 H :    0.132135
  31 H :    0.127611
  32 H :    0.300477
Sum of atomic charges:    0.0000000

LOEWDIN ATOMIC CHARGES
----------------------
   0 C :   -0.144792
   1 C :   -0.141155
   2 C :   -0.102564
   3 C :   -0.025012
   4 C :   -0.036077
   5 C :   -0.097693
   6 C :    0.269873
   7 O :   -0.480725
   8 C :   -0.024103
   9 C :   -0.125581
  10 C :   -0.127443
  11 C :   -0.138596
  12 C :    0.203745
  13 C :   -0.034183
  14 C :    0.269688
  15 O :   -0.531696
  16 N :   -0.674348
  17 C :   -0.017562
  18 C :    0.035436
  19 O :   -0.608395
  20 H :    0.170205
  21 H :    0.170056
  22 H :    0.192745
  23 H :    0.191567
  24 H :    0.193302
  25 H :    0.171489
  26 H :    0.175809
  27 H :    0.301812
  28 H :    0.181294
  29 H :    0.184301
  30 H :    0.165377
  31 H :    0.162505
  32 H :    0.270721

  Mayer bond orders larger than 0.100000
B(  0-C ,  1-C ) :   1.3222 B(  0-C ,  5-C ) :   1.3579 B(  0-C , 20-H ) :   0.9556
B(  1-C ,  2-C ) :   1.3501 B(  1-C , 21-H ) :   0.9556 B(  2-C ,  3-C ) :   1.3561
B(  2-C , 15-O ) :   0.1037 B(  2-C , 22-H ) :   0.9592 B(  3-C ,  4-C ) :   1.5244
B(  3-C , 14-C ) :   0.9233 B(  3-C , 15-O ) :  -0.2048 B(  4-C ,  5-C ) :   1.3493
B(  4-C ,  6-C ) :   0.8560 B(  4-C ,  7-O ) :  -0.2242 B(  5-C ,  7-O ) :   0.1085
B(  5-C , 23-H ) :   0.9630 B(  6-C ,  7-O ) :   2.1016 B(  6-C ,  8-C ) :   0.8648
B(  7-O ,  8-C ) :  -0.2176 B(  7-O ,  9-C ) :   0.1228 B(  8-C ,  9-C ) :   1.3964
B(  8-C , 13-C ) :   1.2747 B(  9-C , 10-C ) :   1.2459 B(  9-C , 24-H ) :   0.9660
B( 10-C , 11-C ) :   1.3717 B( 10-C , 25-H ) :   0.9658 B( 11-C , 12-C ) :   1.1189
B( 11-C , 26-H ) :   0.9553 B( 12-C , 13-C ) :   1.2717 B( 12-C , 14-C ) :  -0.1099
B( 12-C , 16-N ) :   1.3159 B( 13-C , 14-C ) :   0.9304 B( 13-C , 15-O ) :  -0.1284
B( 14-C , 15-O ) :   1.8906 B( 16-N , 17-C ) :   0.8646 B( 16-N , 27-H ) :   0.8238
B( 17-C , 18-C ) :   1.0180 B( 17-C , 28-H ) :   0.9379 B( 17-C , 29-H ) :   0.9271
B( 18-C , 19-O ) :   0.9427 B( 18-C , 30-H ) :   0.9664 B( 18-C , 31-H ) :   0.9555
B( 19-O , 32-H ) :   0.8982

Dispersion correction           -0.015525365
FINAL SINGLE POINT ENERGY      -897.785526751827

DIPOLE MOMENT
-------------

Method             : SCF
Type of density    : Electron Density
Multiplicity       :   1
Irrep              :   0
Energy             :  -897.7861697995849681 Eh
Relativity type    :
Basis              : AO
                                X                 Y                 Z
Electronic contribution:    -11.738379011       3.664831185      -0.557133778
Nuclear contribution   :     13.212306817      -4.497270260       0.893010609
                        -----------------------------------------
Total Dipole Moment    :      1.473927806      -0.832439075       0.335876832
                        -----------------------------------------
Magnitude (a.u.)       :      1.725755266
Magnitude (Debye)      :      4.386521283

Rotational constants in cm-1:             0.019105             0.007991             0.005703
Rotational constants in MHz :           572.745257           239.571324           170.984064

                             ****ORCA TERMINATED NORMALLY****
TOTAL RUN TIME: 0 days 0 hours 2 minutes 8 seconds 529 msec
