                         Program Version 6.0.0  -   RELEASE  -
|  1> ! r2scan-3c def2/J RI DEFGRID2 scfconv6 printgap
|  2> %output
|  3>     printlevel normal
|  4> end
|  5> %cpcm
|  6>     smd true
|  7>     smdsolvent "water"
|  8> end
|  9> * xyz 0 1
| 10> C -4.4748286023 -1.229894938 -0.2682157493
| 11> C -3.6538335298 -2.3491186353 -0.268527127
| 12> C -2.2828856661 -2.2019975489 -0.1675518781
| 13> C -1.7073153589 -0.9372285241 -0.0663682655
| 14> C -2.536509696 0.1899623399 -0.0669338697
| 15> C -3.9176806615 0.0306709012 -0.1674052559
| 16> C -1.9693882164 1.540230168 0.0377905098
| 17> O -2.6873418148 2.5385631118 0.0554579917
| 18> C -0.5018827747 1.6407490472 0.1158769401
| 19> C 0.0359149469 2.9147129964 0.1831559956
| 20> C 1.4152478376 3.0956424544 0.2501243317
| 21> C 2.2516015744 2.0122119236 0.2532821516
| 22> C 1.747020493 0.6889758199 0.1936905829
| 23> C 0.3324055343 0.4980947064 0.1205917131
| 24> C -0.2380847311 -0.8290796111 0.044063562
| 25> O 0.4404000932 -1.8705991145 0.0662881484
| 26> N 2.5801923812 -0.3542330493 0.2234837821
| 27> C 4.0209302358 -0.2884041207 0.2293048219
| 28> C 4.5905490154 -1.7020741743 0.292880981
| 29> O 4.2753849542 -2.3649757255 -0.9153975237
| 30> H -5.544800136 -1.3416306805 -0.3462375399
| 31> H -4.0836316845 -3.335419276 -0.3470086798
| 32> H -1.6269597874 -3.0599464111 -0.1648065628
| 33> H -4.53171382 0.9191856266 -0.1640508533
| 34> H -0.639622878 3.7562620507 0.1789287025
| 35> H 1.8209931176 4.0939696784 0.29726322
| 36> H 3.3171129681 2.1599988224 0.2999645975
| 37> H 2.1568639255 -1.2703825445 0.0938026901
| 38> H 4.3715045633 0.275091759 1.0993023577
| 39> H 4.3856423427 0.1921107057 -0.6860946766
| 40> H 4.1555624828 -2.231762733 1.1494047121
| 41> H 5.6782772365 -1.6411363853 0.4242705463
| 42> H 4.5766840095 -3.2811348783 -0.8716578798
| 43> *
| 44>
| 45>                          ****END OF INPUT****

CARTESIAN COORDINATES (ANGSTROEM)
---------------------------------
  C     -4.474829   -1.229895   -0.268216
  C     -3.653834   -2.349119   -0.268527
  C     -2.282886   -2.201998   -0.167552
  C     -1.707315   -0.937229   -0.066368
  C     -2.536510    0.189962   -0.066934
  C     -3.917681    0.030671   -0.167405
  C     -1.969388    1.540230    0.037791
  O     -2.687342    2.538563    0.055458
  C     -0.501883    1.640749    0.115877
  C      0.035915    2.914713    0.183156
  C      1.415248    3.095642    0.250124
  C      2.251602    2.012212    0.253282
  C      1.747020    0.688976    0.193691
  C      0.332406    0.498095    0.120592
  C     -0.238085   -0.829080    0.044064
  O      0.440400   -1.870599    0.066288
  N      2.580192   -0.354233    0.223484
  C      4.020930   -0.288404    0.229305
  C      4.590549   -1.702074    0.292881
  O      4.275385   -2.364976   -0.915398
  H     -5.544800   -1.341631   -0.346238
  H     -4.083632   -3.335419   -0.347009
  H     -1.626960   -3.059946   -0.164807
  H     -4.531714    0.919186   -0.164051
  H     -0.639623    3.756262    0.178929
  H      1.820993    4.093970    0.297263
  H      3.317113    2.159999    0.299965
  H      2.156864   -1.270383    0.093803
  H      4.371505    0.275092    1.099302
  H      4.385642    0.192111   -0.686095
  H      4.155562   -2.231763    1.149405
  H      5.678277   -1.641136    0.424271
  H      4.576684   -3.281135   -0.871658

 Total Charge           Charge          ....    0
 Multiplicity           Mult            ....    1
 Number of Electrons    NEL             ....  140
 Basis Dimension        Dim             ....  465

ORBITAL ENERGIES
----------------

  NO   OCC          E(Eh)            E(eV)
   0   2.0000     -18.955612      -515.8084
   1   2.0000     -18.949087      -515.6309
   2   2.0000     -18.946130      -515.5504
   3   2.0000     -14.184808      -385.9883
   4   2.0000     -10.131845      -275.7015
   5   2.0000     -10.127345      -275.5791
   6   2.0000     -10.099868      -274.8314
   7   2.0000     -10.079449      -274.2758
   8   2.0000     -10.066377      -273.9201
   9   2.0000     -10.060056      -273.7480
  10   2.0000     -10.060014      -273.7469
  11   2.0000     -10.058248      -273.6988
  12   2.0000     -10.056233      -273.6440
  13   2.0000     -10.050237      -273.4809
  14   2.0000     -10.049865      -273.4707
  15   2.0000     -10.049658      -273.4651
  16   2.0000     -10.048197      -273.4254
  17   2.0000     -10.047941      -273.4184
  18   2.0000     -10.045799      -273.3601
  19   2.0000     -10.041989      -273.2564
  20   2.0000      -1.015906       -27.6442
  21   2.0000      -1.011251       -27.5175
  22   2.0000      -0.992588       -27.0097
  23   2.0000      -0.923980       -25.1428
  24   2.0000      -0.851106       -23.1598
  25   2.0000      -0.832746       -22.6602
  26   2.0000      -0.772983       -21.0339
  27   2.0000      -0.745107       -20.2754
  28   2.0000      -0.737017       -20.0552
  29   2.0000      -0.730158       -19.8686
  30   2.0000      -0.693723       -18.8772
  31   2.0000      -0.651473       -17.7275
  32   2.0000      -0.627263       -17.0687
  33   2.0000      -0.612826       -16.6758
  34   2.0000      -0.588705       -16.0195
  35   2.0000      -0.568515       -15.4701
  36   2.0000      -0.552126       -15.0241
  37   2.0000      -0.519421       -14.1342
  38   2.0000      -0.515214       -14.0197
  39   2.0000      -0.493654       -13.4330
  40   2.0000      -0.483172       -13.1478
  41   2.0000      -0.463535       -12.6134
  42   2.0000      -0.461417       -12.5558
  43   2.0000      -0.443281       -12.0623
  44   2.0000      -0.437890       -11.9156
  45   2.0000      -0.427379       -11.6296
  46   2.0000      -0.423266       -11.5177
  47   2.0000      -0.415002       -11.2928
  48   2.0000      -0.408942       -11.1279
  49   2.0000      -0.406191       -11.0530
  50   2.0000      -0.398928       -10.8554
  51   2.0000      -0.391261       -10.6468
  52   2.0000      -0.386340       -10.5128
  53   2.0000      -0.379598       -10.3294
  54   2.0000      -0.368614       -10.0305
  55   2.0000      -0.359782        -9.7902
  56   2.0000      -0.347536        -9.4569
  57   2.0000      -0.343696        -9.3524
  58   2.0000      -0.336938        -9.1685
  59   2.0000      -0.328798        -8.9471
  60   2.0000      -0.322103        -8.7649
  61   2.0000      -0.309417        -8.4197
  62   2.0000      -0.289500        -7.8777
  63   2.0000      -0.264621        -7.2007
  64   2.0000      -0.251908        -6.8548
  65   2.0000      -0.250910        -6.8276
  66   2.0000      -0.247592        -6.7373
  67   2.0000      -0.244338        -6.6488
  68   2.0000      -0.230770        -6.2796
  69   2.0000      -0.195773        -5.3273
  70   0.0000      -0.133756        -3.6397
  71   0.0000      -0.080009        -2.1772
  72   0.0000      -0.048626        -1.3232
  73   0.0000      -0.027534        -0.7492
  74   0.0000       0.024712         0.6724

MULLIKEN ATOMIC CHARGES
-----------------------
   0 C :   -0.169638
   1 C :   -0.158785
   2 C :   -0.239843
   3 C :    0.199585
   4 C :    0.137920
   5 C :   -0.228052
   6 C :    0.079407
   7 O :   -0.441066
   8 C :    0.187671
   9 C :   -0.257933
  10 C :   -0.188411
  11 C :   -0.269837
  12 C :    0.276259
  13 C :   -0.135264
  14 C :    0.028643
  15 O :   -0.505886
  16 N :   -0.071320
  17 C :   -0.262237
  18 C :   -0.164821
  19 O :   -0.504805
  20 H :    0.185270
  21 H :    0.185496
  22 H :    0.197256
  23 H :    0.195950
  24 H :    0.196925
  25 H :    0.183893
  26 H :    0.182635
  27 H :    0.351668
  28 H :    0.177161
  29 H :    0.179743
  30 H :    0.150339
  31 H :    0.152515
  32 H :    0.349563
Sum of atomic charges:    0.0000000

LOEWDIN ATOMIC CHARGES
----------------------
   0 C :   -0.139347
   1 C :   -0.132128
   2 C :   -0.108562
   3 C :   -0.027562
   4 C :   -0.042365
   5 C :   -0.101940
   6 C :    0.276919
   7 O :   -0.548954
   8 C :   -0.032110
   9 C :   -0.127592
  10 C :   -0.124027
  11 C :   -0.120023
  12 C :    0.202180
  13 C :   -0.039642
  14 C :    0.270303
  15 O :   -0.580638
  16 N :   -0.669044
  17 C :   -0.012783
  18 C :    0.041280
  19 O :   -0.642060
  20 H :    0.184272
  21 H :    0.184471
  22 H :    0.196633
  23 H :    0.195041
  24 H :    0.195701
  25 H :    0.186135
  26 H :    0.193091
  27 H :    0.301065
  28 H :    0.196188
  29 H :    0.190845
  30 H :    0.173012
  31 H :    0.173650
  32 H :    0.287993

  Mayer bond orders larger than 0.100000
B(  0-C ,  1-C ) :   1.3099 B(  0-C ,  5-C ) :   1.3535 B(  0-C , 20-H ) :   0.9604
B(  1-C ,  2-C ) :   1.3402 B(  1-C , 21-H ) :   0.9603 B(  2-C ,  3-C ) :   1.2990
B(  2-C , 15-O ) :   0.1005 B(  2-C , 22-H ) :   0.9721 B(  3-C ,  4-C ) :   1.5102
B(  3-C , 14-C ) :   0.9182 B(  3-C , 15-O ) :  -0.2039 B(  4-C ,  5-C ) :   1.2881
B(  4-C ,  6-C ) :   0.8661 B(  4-C ,  7-O ) :  -0.2230 B(  5-C ,  7-O ) :   0.1042
B(  5-C , 23-H ) :   0.9737 B(  6-C ,  7-O ) :   2.0604 B(  6-C ,  8-C ) :   0.8755
B(  7-O ,  8-C ) :  -0.2163 B(  7-O ,  9-C ) :   0.1214 B(  8-C ,  9-C ) :   1.3292
B(  8-C , 13-C ) :   1.2609 B(  9-C , 10-C ) :   1.2268 B(  9-C , 24-H ) :   0.9808
B( 10-C , 11-C ) :   1.3673 B( 10-C , 25-H ) :   0.9767 B( 11-C , 12-C ) :   1.1001
B( 11-C , 26-H ) :   0.9636 B( 12-C , 13-C ) :   1.2343 B( 12-C , 14-C ) :  -0.1014
B( 12-C , 16-N ) :   1.3296 B( 13-C , 14-C ) :   0.9484 B( 13-C , 15-O ) :  -0.1367
B( 14-C , 15-O ) :   1.8715 B( 16-N , 17-C ) :   0.8582 B( 16-N , 27-H ) :   0.8208
B( 17-C , 18-C ) :   0.9837 B( 17-C , 28-H ) :   0.9298 B( 17-C , 29-H ) :   0.9288
B( 18-C , 19-O ) :   0.9262 B( 18-C , 30-H ) :   0.9667 B( 18-C , 31-H ) :   0.9567
B( 19-O , 32-H ) :   0.8730

Dispersion correction           -0.015525365
FINAL SINGLE POINT ENERGY      -897.806648555329

DIPOLE MOMENT
-------------

Method             : SCF
Type of density    : Electron Density
Multiplicity       :   1
Irrep              :   0
Energy             :  -897.8072916030868100 Eh
Relativity type    :
Basis              : AO
                                X                 Y                 Z
Electronic contribution:    -11.031045368       3.520191900      -0.338888686
Nuclear contribution   :     13.212306817      -4.497270260       0.893010609
                        -----------------------------------------
Total Dipole Moment    :      2.181261449      -0.977078361       0.554121924
                        -----------------------------------------
Magnitude (a.u.)       :      2.453494393
Magnitude (Debye)      :      6.236287142

Rotational constants in cm-1:             0.019105             0.007991             0.005703
Rotational constants in MHz :           572.745257           239.571324           170.984064

                             ****ORCA TERMINATED NORMALLY****
TOTAL RUN TIME: 0 days 0 hours 2 minutes 36 seconds 863 msec
