                         Program Version 6.0.0  -   RELEASE  -
|  1> ! r2scan-3c def2/J RI DEFGRID2 scfconv6 printgap
|  2> %output
|  3>     printlevel normal
|  4> end
|  5> * xyz 0 1
|  6> C -4.4177854332 -1.2848227553 0.1426552213
|  7> C -3.5938191218 -2.383288018 -0.060994128
|  8> C -2.2305992563 -2.2082850761 -0.2101302407
|  9> C -1.6654991422 -0.9361016735 -0.1517892908
| 10> C -2.4972323495 0.1695204486 0.0557689686
| 11> C -3.8713448084 -0.0168289673 0.1979247227
| 12> C -1.9378991695 1.5247191114 0.1236201908
| 13> O -2.6592182799 2.5122283951 0.2529123911
| 14> C -0.4712358435 1.643188985 0.0449049505
| 15> C 0.0597272581 2.9120287701 0.1991943939
| 16> C 1.4366709591 3.1090708122 0.142300715
| 17> C 2.2759705832 2.0476558769 -0.0617308552
| 18> C 1.7828495359 0.728914082 -0.2210107405
| 19> C 0.3672815627 0.5241241434 -0.1721114937
| 20> C -0.2049048382 -0.7969730119 -0.3247891745
| 21> O 0.4643078245 -1.8108849771 -0.5878716479
| 22> N 2.6062620886 -0.3000113296 -0.4544177606
| 23> C 4.036562627 -0.3630145809 -0.303744926
| 24> C 4.4059403393 -1.3786126959 0.7914622884
| 25> O 3.9375253677 -2.6764588101 0.5131807696
| 26> H -5.4818732597 -1.4187527469 0.2574359852
| 27> H -4.0155064783 -3.3752112154 -0.1044449123
| 28> H -1.5728131814 -3.0491952468 -0.3731146801
| 29> H -4.4880447942 0.8560498198 0.3535527823
| 30> H -0.6185097609 3.7358897617 0.3595642254
| 31> H 1.8392080108 4.1033625415 0.255541196
| 32> H 3.3366578252 2.2246571076 -0.1194281959
| 33> H 2.148659696 -1.2096728022 -0.5278825322
| 34> H 4.45372846 0.603583351 -0.030870534
| 35> H 4.4733873786 -0.6820833329 -1.2559885038
| 36> H 3.9290998066 -1.0932921971 1.7321757763
| 37> H 5.4937042624 -1.3775700284 0.9323962191
| 38> H 4.3823094108 -3.0174572089 -0.2754623572
| 39> *
| 40>
| 41>                          ****END OF INPUT****

CARTESIAN COORDINATES (ANGSTROEM)
---------------------------------
  C     -4.417785   -1.284823    0.142655
  C     -3.593819   -2.383288   -0.060994
  C     -2.230599   -2.208285   -0.210130
  C     -1.665499   -0.936102   -0.151789
  C     -2.497232    0.169520    0.055769
  C     -3.871345   -0.016829    0.197925
  C     -1.937899    1.524719    0.123620
  O     -2.659218    2.512228    0.252912
  C     -0.471236    1.643189    0.044905
  C      0.059727    2.912029    0.199194
  C      1.436671    3.109071    0.142301
  C      2.275971    2.047656   -0.061731
  C      1.782850    0.728914   -0.221011
  C      0.367282    0.524124   -0.172111
  C     -0.204905   -0.796973   -0.324789
  O      0.464308   -1.810885   -0.587872
  N      2.606262   -0.300011   -0.454418
  C      4.036563   -0.363015   -0.303745
  C      4.405940   -1.378613    0.791462
  O      3.937525   -2.676459    0.513181
  H     -5.481873   -1.418753    0.257436
  H     -4.015506   -3.375211   -0.104445
  H     -1.572813   -3.049195   -0.373115
  H     -4.488045    0.856050    0.353553
  H     -0.618510    3.735890    0.359564
  H      1.839208    4.103363    0.255541
  H      3.336658    2.224657   -0.119428
  H      2.148660   -1.209673   -0.527883
  H      4.453728    0.603583   -0.030871
  H      4.473387   -0.682083   -1.255989
  H      3.929100   -1.093292    1.732176
  H      5.493704   -1.377570    0.932396
  H      4.382309   -3.017457   -0.275462

 Total Charge           Charge          ....    0
 Multiplicity           Mult            ....    1
 Number of Electrons    NEL             ....  140
 Basis Dimension        Dim             ....  465

ORBITAL ENERGIES
----------------

  NO   OCC          E(Eh)            E(eV)
   0   2.0000     -18.967089      -516.1207
   1   2.0000     -18.937812      -515.3241
   2   2.0000     -18.934844      -515.2433
   3   2.0000     -14.186436      -386.0326
   4   2.0000     -10.120396      -275.3900
   5   2.0000     -10.118994      -275.3518
   6   2.0000     -10.103184      -274.9216
   7   2.0000     -10.095750      -274.7193
   8   2.0000     -10.086507      -274.4678
   9   2.0000     -10.056164      -273.6421
  10   2.0000     -10.055892      -273.6347
  11   2.0000     -10.054275      -273.5907
  12   2.0000     -10.053786      -273.5774
  13   2.0000     -10.053273      -273.5635
  14   2.0000     -10.050971      -273.5008
  15   2.0000     -10.050012      -273.4747
  16   2.0000     -10.049429      -273.4589
  17   2.0000     -10.047459      -273.4053
  18   2.0000     -10.046243      -273.3722
  19   2.0000     -10.038104      -273.1507
  20   2.0000      -1.006181       -27.3796
  21   2.0000      -1.002282       -27.2735
  22   2.0000      -0.998853       -27.1802
  23   2.0000      -0.926869       -25.2214
  24   2.0000      -0.847774       -23.0691
  25   2.0000      -0.832001       -22.6399
  26   2.0000      -0.771886       -21.0041
  27   2.0000      -0.750171       -20.4132
  28   2.0000      -0.734033       -19.9740
  29   2.0000      -0.729594       -19.8533
  30   2.0000      -0.698291       -19.0015
  31   2.0000      -0.648580       -17.6488
  32   2.0000      -0.633191       -17.2300
  33   2.0000      -0.615516       -16.7490
  34   2.0000      -0.602843       -16.4042
  35   2.0000      -0.570042       -15.5116
  36   2.0000      -0.550351       -14.9758
  37   2.0000      -0.522999       -14.2315
  38   2.0000      -0.518565       -14.1109
  39   2.0000      -0.493551       -13.4302
  40   2.0000      -0.483545       -13.1579
  41   2.0000      -0.458279       -12.4704
  42   2.0000      -0.457915       -12.4605
  43   2.0000      -0.450955       -12.2711
  44   2.0000      -0.442981       -12.0541
  45   2.0000      -0.435782       -11.8582
  46   2.0000      -0.420087       -11.4311
  47   2.0000      -0.415767       -11.3136
  48   2.0000      -0.411474       -11.1968
  49   2.0000      -0.403765       -10.9870
  50   2.0000      -0.399497       -10.8709
  51   2.0000      -0.393071       -10.6960
  52   2.0000      -0.382502       -10.4084
  53   2.0000      -0.377061       -10.2604
  54   2.0000      -0.368021       -10.0144
  55   2.0000      -0.361175        -9.8281
  56   2.0000      -0.351769        -9.5721
  57   2.0000      -0.344386        -9.3712
  58   2.0000      -0.333616        -9.0782
  59   2.0000      -0.329372        -8.9627
  60   2.0000      -0.320187        -8.7127
  61   2.0000      -0.314657        -8.5622
  62   2.0000      -0.294654        -8.0179
  63   2.0000      -0.259238        -7.0542
  64   2.0000      -0.257872        -7.0171
  65   2.0000      -0.249200        -6.7811
  66   2.0000      -0.247157        -6.7255
  67   2.0000      -0.230328        -6.2675
  68   2.0000      -0.218771        -5.9531
  69   2.0000      -0.193734        -5.2718
  70   0.0000      -0.125892        -3.4257
  71   0.0000      -0.075990        -2.0678
  72   0.0000      -0.047531        -1.2934
  73   0.0000      -0.025788        -0.7017
  74   0.0000       0.025122         0.6836

MULLIKEN ATOMIC CHARGES
-----------------------
   0 C :   -0.132360
   1 C :   -0.128579
   2 C :   -0.221699
   3 C :    0.185874
   4 C :    0.132213
   5 C :   -0.218336
   6 C :    0.045497
   7 O :   -0.355619
   8 C :    0.190221
   9 C :   -0.255501
  10 C :   -0.125327
  11 C :   -0.343365
  12 C :    0.334852
  13 C :   -0.136120
  14 C :    0.024603
  15 O :   -0.440761
  16 N :   -0.078088
  17 C :   -0.250881
  18 C :   -0.137919
  19 O :   -0.417561
  20 H :    0.148657
  21 H :    0.148568
  22 H :    0.183235
  23 H :    0.181557
  24 H :    0.185224
  25 H :    0.146910
  26 H :    0.130677
  27 H :    0.343428
  28 H :    0.127995
  29 H :    0.157227
  30 H :    0.144092
  31 H :    0.132195
  32 H :    0.299093
Sum of atomic charges:   -0.0000000

LOEWDIN ATOMIC CHARGES
----------------------
   0 C :   -0.144644
   1 C :   -0.140657
   2 C :   -0.101640
   3 C :   -0.024657
   4 C :   -0.036331
   5 C :   -0.097851
   6 C :    0.269629
   7 O :   -0.480797
   8 C :   -0.023681
   9 C :   -0.125853
  10 C :   -0.128858
  11 C :   -0.141381
  12 C :    0.206438
  13 C :   -0.035911
  14 C :    0.269882
  15 O :   -0.531364
  16 N :   -0.673198
  17 C :   -0.028023
  18 C :    0.028494
  19 O :   -0.594428
  20 H :    0.170252
  21 H :    0.170253
  22 H :    0.193354
  23 H :    0.191381
  24 H :    0.193582
  25 H :    0.171404
  26 H :    0.170092
  27 H :    0.302075
  28 H :    0.183156
  29 H :    0.178808
  30 H :    0.183715
  31 H :    0.159691
  32 H :    0.267072

  Mayer bond orders larger than 0.100000
B(  0-C ,  1-C ) :   1.3226 B(  0-C ,  5-C ) :   1.3600 B(  0-C , 20-H ) :   0.9555
B(  1-C ,  2-C ) :   1.3516 B(  1-C , 21-H ) :   0.9559 B(  2-C ,  3-C ) :   1.3577
B(  2-C , 15-O ) :   0.1034 B(  2-C , 22-H ) :   0.9574 B(  3-C ,  4-C ) :   1.5116
B(  3-C , 14-C ) :   0.9295 B(  3-C , 15-O ) :  -0.1952 B(  4-C ,  5-C ) :   1.3496
B(  4-C ,  6-C ) :   0.8648 B(  4-C ,  7-O ) :  -0.2200 B(  5-C ,  7-O ) :   0.1082
B(  5-C , 23-H ) :   0.9624 B(  6-C ,  7-O ) :   2.0942 B(  6-C ,  8-C ) :   0.8733
B(  7-O ,  8-C ) :  -0.2131 B(  7-O ,  9-C ) :   0.1236 B(  8-C ,  9-C ) :   1.4050
B(  8-C , 13-C ) :   1.2698 B(  9-C , 10-C ) :   1.2571 B(  9-C , 24-H ) :   0.9645
B( 10-C , 11-C ) :   1.4067 B( 10-C , 25-H ) :   0.9634 B( 11-C , 12-C ) :   1.1062
B( 11-C , 26-H ) :   0.9541 B( 12-C , 13-C ) :   1.2660 B( 12-C , 14-C ) :  -0.1103
B( 12-C , 16-N ) :   1.2657 B( 13-C , 14-C ) :   0.9553 B( 13-C , 15-O ) :  -0.1048
B( 14-C , 15-O ) :   1.8657 B( 16-N , 17-C ) :   0.8310 B( 16-N , 27-H ) :   0.8184
B( 17-C , 18-C ) :   0.9391 B( 17-C , 28-H ) :   0.9494 B( 17-C , 29-H ) :   0.9696
B( 18-C , 19-O ) :   0.9784 B( 18-C , 30-H ) :   0.9609 B( 18-C , 31-H ) :   0.9748
B( 19-O , 32-H ) :   0.8934

Dispersion correction           -0.015620455
FINAL SINGLE POINT ENERGY      -897.782131272851

DIPOLE MOMENT
-------------

Method             : SCF
Type of density    : Electron Density
Multiplicity       :   1
Irrep              :   0
Energy             :  -897.7829174992546086 Eh
Relativity type    :
Basis              : AO
                                X                 Y                 Z
Electronic contribution:    -11.509197613       3.187600148      -1.310669523
Nuclear contribution   :     13.061951931      -3.501841718       1.129208812
                        -----------------------------------------
Total Dipole Moment    :      1.552754317      -0.314241570      -0.181460710
                        -----------------------------------------
Magnitude (a.u.)       :      1.594591397
Magnitude (Debye)      :      4.053129224

Rotational constants in cm-1:             0.018680             0.008299             0.005878
Rotational constants in MHz :           560.025706           248.801322           176.222113

                             ****ORCA TERMINATED NORMALLY****
TOTAL RUN TIME: 0 days 0 hours 2 minutes 8 seconds 956 msec
