                         Program Version 6.0.0  -   RELEASE  -
|  1> ! r2scan-3c def2/J RI DEFGRID2 scfconv6 printgap
|  2> %output
|  3>     printlevel normal
|  4> end
|  5> %cpcm
|  6>     smd true
|  7>     smdsolvent "water"
|  8> end
|  9> * xyz 0 1
| 10> C -4.4177854332 -1.2848227553 0.1426552213
| 11> C -3.5938191218 -2.383288018 -0.060994128
| 12> C -2.2305992563 -2.2082850761 -0.2101302407
| 13> C -1.6654991422 -0.9361016735 -0.1517892908
| 14> C -2.4972323495 0.1695204486 0.0557689686
| 15> C -3.8713448084 -0.0168289673 0.1979247227
| 16> C -1.9378991695 1.5247191114 0.1236201908
| 17> O -2.6592182799 2.5122283951 0.2529123911
| 18> C -0.4712358435 1.643188985 0.0449049505
| 19> C 0.0597272581 2.9120287701 0.1991943939
| 20> C 1.4366709591 3.1090708122 0.142300715
| 21> C 2.2759705832 2.0476558769 -0.0617308552
| 22> C 1.7828495359 0.728914082 -0.2210107405
| 23> C 0.3672815627 0.5241241434 -0.1721114937
| 24> C -0.2049048382 -0.7969730119 -0.3247891745
| 25> O 0.4643078245 -1.8108849771 -0.5878716479
| 26> N 2.6062620886 -0.3000113296 -0.4544177606
| 27> C 4.036562627 -0.3630145809 -0.303744926
| 28> C 4.4059403393 -1.3786126959 0.7914622884
| 29> O 3.9375253677 -2.6764588101 0.5131807696
| 30> H -5.4818732597 -1.4187527469 0.2574359852
| 31> H -4.0155064783 -3.3752112154 -0.1044449123
| 32> H -1.5728131814 -3.0491952468 -0.3731146801
| 33> H -4.4880447942 0.8560498198 0.3535527823
| 34> H -0.6185097609 3.7358897617 0.3595642254
| 35> H 1.8392080108 4.1033625415 0.255541196
| 36> H 3.3366578252 2.2246571076 -0.1194281959
| 37> H 2.148659696 -1.2096728022 -0.5278825322
| 38> H 4.45372846 0.603583351 -0.030870534
| 39> H 4.4733873786 -0.6820833329 -1.2559885038
| 40> H 3.9290998066 -1.0932921971 1.7321757763
| 41> H 5.4937042624 -1.3775700284 0.9323962191
| 42> H 4.3823094108 -3.0174572089 -0.2754623572
| 43> *
| 44>
| 45>                          ****END OF INPUT****

CARTESIAN COORDINATES (ANGSTROEM)
---------------------------------
  C     -4.417785   -1.284823    0.142655
  C     -3.593819   -2.383288   -0.060994
  C     -2.230599   -2.208285   -0.210130
  C     -1.665499   -0.936102   -0.151789
  C     -2.497232    0.169520    0.055769
  C     -3.871345   -0.016829    0.197925
  C     -1.937899    1.524719    0.123620
  O     -2.659218    2.512228    0.252912
  C     -0.471236    1.643189    0.044905
  C      0.059727    2.912029    0.199194
  C      1.436671    3.109071    0.142301
  C      2.275971    2.047656   -0.061731
  C      1.782850    0.728914   -0.221011
  C      0.367282    0.524124   -0.172111
  C     -0.204905   -0.796973   -0.324789
  O      0.464308   -1.810885   -0.587872
  N      2.606262   -0.300011   -0.454418
  C      4.036563   -0.363015   -0.303745
  C      4.405940   -1.378613    0.791462
  O      3.937525   -2.676459    0.513181
  H     -5.481873   -1.418753    0.257436
  H     -4.015506   -3.375211   -0.104445
  H     -1.572813   -3.049195   -0.373115
  H     -4.488045    0.856050    0.353553
  H     -0.618510    3.735890    0.359564
  H      1.839208    4.103363    0.255541
  H      3.336658    2.224657   -0.119428
  H      2.148660   -1.209673   -0.527883
  H      4.453728    0.603583   -0.030871
  H      4.473387   -0.682083   -1.255989
  H      3.929100   -1.093292    1.732176
  H      5.493704   -1.377570    0.932396
  H      4.382309   -3.017457   -0.275462

 Total Charge           Charge          ....    0
 Multiplicity           Mult            ....    1
 Number of Electrons    NEL             ....  140
 Basis Dimension        Dim             ....  465

ORBITAL ENERGIES
----------------

  NO   OCC          E(Eh)            E(eV)
   0   2.0000     -18.956743      -515.8392
   1   2.0000     -18.948591      -515.6174
   2   2.0000     -18.946040      -515.5480
   3   2.0000     -14.184731      -385.9861
   4   2.0000     -10.131377      -275.6888
   5   2.0000     -10.126910      -275.5672
   6   2.0000     -10.102137      -274.8931
   7   2.0000     -10.077071      -274.2110
   8   2.0000     -10.064619      -273.8722
   9   2.0000     -10.059814      -273.7415
  10   2.0000     -10.059638      -273.7367
  11   2.0000     -10.057932      -273.6902
  12   2.0000     -10.055869      -273.6341
  13   2.0000     -10.049756      -273.4678
  14   2.0000     -10.049738      -273.4673
  15   2.0000     -10.049520      -273.4613
  16   2.0000     -10.048022      -273.4206
  17   2.0000     -10.047735      -273.4128
  18   2.0000     -10.045966      -273.3646
  19   2.0000     -10.041625      -273.2465
  20   2.0000      -1.015612       -27.6362
  21   2.0000      -1.011567       -27.5261
  22   2.0000      -0.994379       -27.0584
  23   2.0000      -0.922651       -25.1066
  24   2.0000      -0.850968       -23.1560
  25   2.0000      -0.832623       -22.6568
  26   2.0000      -0.772834       -21.0299
  27   2.0000      -0.743015       -20.2185
  28   2.0000      -0.736731       -20.0475
  29   2.0000      -0.729961       -19.8632
  30   2.0000      -0.690963       -18.8021
  31   2.0000      -0.651327       -17.7235
  32   2.0000      -0.628483       -17.1019
  33   2.0000      -0.611570       -16.6417
  34   2.0000      -0.598152       -16.2765
  35   2.0000      -0.567435       -15.4407
  36   2.0000      -0.551930       -15.0188
  37   2.0000      -0.520364       -14.1598
  38   2.0000      -0.516892       -14.0653
  39   2.0000      -0.489332       -13.3154
  40   2.0000      -0.477755       -13.0004
  41   2.0000      -0.462222       -12.5777
  42   2.0000      -0.447637       -12.1808
  43   2.0000      -0.445416       -12.1204
  44   2.0000      -0.437691       -11.9102
  45   2.0000      -0.432209       -11.7610
  46   2.0000      -0.420151       -11.4329
  47   2.0000      -0.418669       -11.3926
  48   2.0000      -0.410724       -11.1764
  49   2.0000      -0.406205       -11.0534
  50   2.0000      -0.400665       -10.9027
  51   2.0000      -0.398098       -10.8328
  52   2.0000      -0.384645       -10.4667
  53   2.0000      -0.382161       -10.3991
  54   2.0000      -0.368614       -10.0305
  55   2.0000      -0.354786        -9.6542
  56   2.0000      -0.345463        -9.4005
  57   2.0000      -0.343904        -9.3581
  58   2.0000      -0.336920        -9.1681
  59   2.0000      -0.328889        -8.9495
  60   2.0000      -0.322166        -8.7666
  61   2.0000      -0.306453        -8.3390
  62   2.0000      -0.291559        -7.9337
  63   2.0000      -0.264463        -7.1964
  64   2.0000      -0.252428        -6.8689
  65   2.0000      -0.250931        -6.8282
  66   2.0000      -0.250622        -6.8198
  67   2.0000      -0.243794        -6.6340
  68   2.0000      -0.230359        -6.2684
  69   2.0000      -0.193536        -5.2664
  70   0.0000      -0.133053        -3.6206
  71   0.0000      -0.079825        -2.1722
  72   0.0000      -0.048531        -1.3206
  73   0.0000      -0.027426        -0.7463
  74   0.0000       0.024026         0.6538

MULLIKEN ATOMIC CHARGES
-----------------------
   0 C :   -0.169990
   1 C :   -0.159435
   2 C :   -0.238585
   3 C :    0.193480
   4 C :    0.131939
   5 C :   -0.230033
   6 C :    0.090521
   7 O :   -0.443028
   8 C :    0.178170
   9 C :   -0.257774
  10 C :   -0.170410
  11 C :   -0.331210
  12 C :    0.318916
  13 C :   -0.141929
  14 C :    0.040716
  15 O :   -0.507659
  16 N :   -0.091604
  17 C :   -0.235539
  18 C :   -0.149784
  19 O :   -0.498267
  20 H :    0.185254
  21 H :    0.185500
  22 H :    0.197410
  23 H :    0.195865
  24 H :    0.197298
  25 H :    0.184120
  26 H :    0.176376
  27 H :    0.348236
  28 H :    0.161402
  29 H :    0.179722
  30 H :    0.155973
  31 H :    0.151918
  32 H :    0.352432
Sum of atomic charges:   -0.0000000

LOEWDIN ATOMIC CHARGES
----------------------
   0 C :   -0.139907
   1 C :   -0.132430
   2 C :   -0.108953
   3 C :   -0.027192
   4 C :   -0.042708
   5 C :   -0.102344
   6 C :    0.276154
   7 O :   -0.550297
   8 C :   -0.032684
   9 C :   -0.127490
  10 C :   -0.126128
  11 C :   -0.120220
  12 C :    0.205757
  13 C :   -0.041912
  14 C :    0.269368
  15 O :   -0.585168
  16 N :   -0.663077
  17 C :   -0.016312
  18 C :    0.032791
  19 O :   -0.631055
  20 H :    0.184194
  21 H :    0.184412
  22 H :    0.196647
  23 H :    0.194849
  24 H :    0.195752
  25 H :    0.185968
  26 H :    0.189414
  27 H :    0.300198
  28 H :    0.197405
  29 H :    0.192024
  30 H :    0.185078
  31 H :    0.171772
  32 H :    0.286096

  Mayer bond orders larger than 0.100000
B(  0-C ,  1-C ) :   1.3107 B(  0-C ,  5-C ) :   1.3561 B(  0-C , 20-H ) :   0.9603
B(  1-C ,  2-C ) :   1.3424 B(  1-C , 21-H ) :   0.9604 B(  2-C ,  3-C ) :   1.2988
B(  2-C , 15-O ) :   0.1005 B(  2-C , 22-H ) :   0.9706 B(  3-C ,  4-C ) :   1.4983
B(  3-C , 14-C ) :   0.9261 B(  3-C , 15-O ) :  -0.1952 B(  4-C ,  5-C ) :   1.2882
B(  4-C ,  6-C ) :   0.8751 B(  4-C ,  7-O ) :  -0.2192 B(  5-C ,  7-O ) :   0.1041
B(  5-C , 23-H ) :   0.9732 B(  6-C ,  7-O ) :   2.0514 B(  6-C ,  8-C ) :   0.8852
B(  7-O ,  8-C ) :  -0.2112 B(  7-O ,  9-C ) :   0.1226 B(  8-C ,  9-C ) :   1.3386
B(  8-C , 13-C ) :   1.2511 B(  9-C , 10-C ) :   1.2330 B(  9-C , 24-H ) :   0.9781
B( 10-C , 11-C ) :   1.3997 B( 10-C , 25-H ) :   0.9738 B( 11-C , 12-C ) :   1.0967
B( 11-C , 26-H ) :   0.9624 B( 12-C , 13-C ) :   1.2243 B( 12-C , 16-N ) :   1.2917
B( 13-C , 14-C ) :   0.9761 B( 13-C , 15-O ) :  -0.1121 B( 14-C , 15-O ) :   1.8451
B( 16-N , 17-C ) :   0.8410 B( 16-N , 27-H ) :   0.8226 B( 17-C , 18-C ) :   0.9309
B( 17-C , 28-H ) :   0.9430 B( 17-C , 29-H ) :   0.9545 B( 18-C , 19-O ) :   0.9672
B( 18-C , 30-H ) :   0.9655 B( 18-C , 31-H ) :   0.9628 B( 19-O , 32-H ) :   0.8669

Dispersion correction           -0.015620455
FINAL SINGLE POINT ENERGY      -897.804261307522

DIPOLE MOMENT
-------------

Method             : SCF
Type of density    : Electron Density
Multiplicity       :   1
Irrep              :   0
Energy             :  -897.8050475339254035 Eh
Relativity type    :
Basis              : AO
                                X                 Y                 Z
Electronic contribution:    -10.612699384       3.252362486      -1.408317346
Nuclear contribution   :     13.061951931      -3.501841718       1.129208812
                        -----------------------------------------
Total Dipole Moment    :      2.449252547      -0.249479232      -0.279108533
                        -----------------------------------------
Magnitude (a.u.)       :      2.477696410
Magnitude (Debye)      :      6.297803779

Rotational constants in cm-1:             0.018680             0.008299             0.005878
Rotational constants in MHz :           560.025706           248.801322           176.222113

                             ****ORCA TERMINATED NORMALLY****
TOTAL RUN TIME: 0 days 0 hours 2 minutes 39 seconds 804 msec
