                         Program Version 6.0.0  -   RELEASE  -
|  1> ! r2scan-3c def2/J RI DEFGRID2 scfconv6 printgap
|  2> %output
|  3>     printlevel normal
|  4> end
|  5> * xyz 0 1
|  6> C -2.2909979493 -1.2462746282 0.5899187335
|  7> C -1.9686512577 -0.3209331031 -0.5783901313
|  8> C -1.5644897587 1.0882894713 -0.1422073592
|  9> C -0.2978388816 1.1172034534 0.7241820464
| 10> C 0.8611082507 0.5132202889 -0.0230188335
| 11> O 1.3520121768 0.9680903502 -1.0352942999
| 12> O 1.2850145781 -0.6083517186 0.5501090515
| 13> C 2.3755206073 -1.3031195445 -0.0599450467
| 14> H -3.0341298578 -0.7904041331 1.2397187179
| 15> H -2.6885549971 -2.1883834477 0.2208627875
| 16> H -1.3997546878 -1.4618813712 1.173164418
| 17> H -1.1658084496 -0.7565852583 -1.1789786622
| 18> H -2.8475460805 -0.2376129548 -1.221220468
| 19> H -2.379609622 1.5410018205 0.4236529461
| 20> H -1.386164303 1.6943783858 -1.0328151333
| 21> H -0.4444116316 0.5678717156 1.65159714
| 22> H -0.0491359434 2.1549365344 0.9491376964
| 23> H 2.3605926212 -2.3055008285 0.356703089
| 24> H 3.3119852112 -0.7983313522 0.1789083017
| 25> H 2.2466778813 -1.3232154337 -1.1429274601
| 26> *
| 27>
| 28>                          ****END OF INPUT****

CARTESIAN COORDINATES (ANGSTROEM)
---------------------------------
  C     -2.290998   -1.246275    0.589919
  C     -1.968651   -0.320933   -0.578390
  C     -1.564490    1.088289   -0.142207
  C     -0.297839    1.117203    0.724182
  C      0.861108    0.513220   -0.023019
  O      1.352012    0.968090   -1.035294
  O      1.285015   -0.608352    0.550109
  C      2.375521   -1.303120   -0.059945
  H     -3.034130   -0.790404    1.239719
  H     -2.688555   -2.188383    0.220863
  H     -1.399755   -1.461881    1.173164
  H     -1.165808   -0.756585   -1.178979
  H     -2.847546   -0.237613   -1.221220
  H     -2.379610    1.541002    0.423653
  H     -1.386164    1.694378   -1.032815
  H     -0.444412    0.567872    1.651597
  H     -0.049136    2.154937    0.949138
  H      2.360593   -2.305501    0.356703
  H      3.311985   -0.798331    0.178908
  H      2.246678   -1.323215   -1.142927

 Total Charge           Charge          ....    0
 Multiplicity           Mult            ....    1
 Number of Electrons    NEL             ....   64
 Basis Dimension        Dim             ....  222

ORBITAL ENERGIES
----------------

  NO   OCC          E(Eh)            E(eV)
   0   2.0000     -19.001000      -517.0435
   1   2.0000     -18.929300      -515.0924
   2   2.0000     -10.152685      -276.2686
   3   2.0000     -10.087061      -274.4829
   4   2.0000     -10.041019      -273.2300
   5   2.0000     -10.034557      -273.0542
   6   2.0000     -10.028114      -272.8789
   7   2.0000     -10.017196      -272.5818
   8   2.0000      -1.074122       -29.2283
   9   2.0000      -0.976575       -26.5739
  10   2.0000      -0.779457       -21.2101
  11   2.0000      -0.724419       -19.7124
  12   2.0000      -0.686290       -18.6749
  13   2.0000      -0.623489       -16.9660
  14   2.0000      -0.556301       -15.1377
  15   2.0000      -0.523985       -14.2584
  16   2.0000      -0.469376       -12.7724
  17   2.0000      -0.459150       -12.4941
  18   2.0000      -0.447792       -12.1850
  19   2.0000      -0.427762       -11.6400
  20   2.0000      -0.419791       -11.4231
  21   2.0000      -0.390364       -10.6223
  22   2.0000      -0.375378       -10.2145
  23   2.0000      -0.362223        -9.8566
  24   2.0000      -0.355058        -9.6616
  25   2.0000      -0.342564        -9.3216
  26   2.0000      -0.319529        -8.6948
  27   2.0000      -0.304132        -8.2759
  28   2.0000      -0.298222        -8.1150
  29   2.0000      -0.297275        -8.0893
  30   2.0000      -0.274623        -7.4729
  31   2.0000      -0.236964        -6.4481
  32   0.0000      -0.017384        -0.4730
  33   0.0000       0.061981         1.6866
  34   0.0000       0.089196         2.4271
  35   0.0000       0.106420         2.8958
  36   0.0000       0.117279         3.1913

MULLIKEN ATOMIC CHARGES
-----------------------
   0 C :   -0.504291
   1 C :   -0.212067
   2 C :   -0.286456
   3 C :   -0.326803
   4 C :    0.342358
   5 O :   -0.415232
   6 O :   -0.178327
   7 C :   -0.296660
   8 H :    0.146179
   9 H :    0.146905
  10 H :    0.160760
  11 H :    0.147274
  12 H :    0.145292
  13 H :    0.151835
  14 H :    0.166140
  15 H :    0.170760
  16 H :    0.165711
  17 H :    0.150401
  18 H :    0.154915
  19 H :    0.171305
Sum of atomic charges:    0.0000000

LOEWDIN ATOMIC CHARGES
----------------------
   0 C :   -0.425486
   1 C :   -0.311248
   2 C :   -0.285619
   3 C :   -0.230865
   4 C :    0.348995
   5 O :   -0.427070
   6 O :   -0.606955
   7 C :   -0.045913
   8 H :    0.150105
   9 H :    0.152291
  10 H :    0.153900
  11 H :    0.157771
  12 H :    0.154318
  13 H :    0.156645
  14 H :    0.168061
  15 H :    0.177137
  16 H :    0.181212
  17 H :    0.175882
  18 H :    0.174077
  19 H :    0.182759

  Mayer bond orders larger than 0.100000
B(  0-C ,  1-C ) :   0.8887 B(  0-C ,  8-H ) :   0.9822 B(  0-C ,  9-H ) :   0.9693
B(  0-C , 10-H ) :   0.9753 B(  1-C ,  2-C ) :   0.9018 B(  1-C , 11-H ) :   0.9667
B(  1-C , 12-H ) :   0.9597 B(  2-C ,  3-C ) :   0.8729 B(  2-C , 13-H ) :   0.9824
B(  2-C , 14-H ) :   0.9721 B(  3-C ,  4-C ) :   0.9278 B(  3-C , 15-H ) :   1.0051
B(  3-C , 16-H ) :   0.9409 B(  4-C ,  5-O ) :   1.8295 B(  4-C ,  6-O ) :   1.0552
B(  6-O ,  7-C ) :   0.8502 B(  7-C , 17-H ) :   0.9694 B(  7-C , 18-H ) :   0.9600
B(  7-C , 19-H ) :   0.9638

Dispersion correction           -0.005438532
FINAL SINGLE POINT ENERGY      -386.230824067718

DIPOLE MOMENT
-------------

Method             : SCF
Type of density    : Electron Density
Multiplicity       :   1
Irrep              :   0
Energy             :  -386.2374493034171792 Eh
Relativity type    :
Basis              : AO
                                X                 Y                 Z
Electronic contribution:      6.782835974       3.143233840      -0.994341869
Nuclear contribution   :     -6.974500492      -3.657011774       1.510574842
                        -----------------------------------------
Total Dipole Moment    :     -0.191664518      -0.513777934       0.516232973
                        -----------------------------------------
Magnitude (a.u.)       :      0.753126506
Magnitude (Debye)      :      1.914295448

Rotational constants in cm-1:             0.100781             0.044995             0.036955
Rotational constants in MHz :          3021.332732          1348.923076          1107.881521

                             ****ORCA TERMINATED NORMALLY****
TOTAL RUN TIME: 0 days 0 hours 0 minutes 26 seconds 832 msec
