                         Program Version 6.0.0  -   RELEASE  -
|  1> ! r2scan-3c def2/J RI DEFGRID2 scfconv6 printgap
|  2> %output
|  3>     printlevel normal
|  4> end
|  5> %cpcm
|  6>     smd true
|  7>     smdsolvent "water"
|  8> end
|  9> * xyz 0 1
| 10> C -2.2909979493 -1.2462746282 0.5899187335
| 11> C -1.9686512577 -0.3209331031 -0.5783901313
| 12> C -1.5644897587 1.0882894713 -0.1422073592
| 13> C -0.2978388816 1.1172034534 0.7241820464
| 14> C 0.8611082507 0.5132202889 -0.0230188335
| 15> O 1.3520121768 0.9680903502 -1.0352942999
| 16> O 1.2850145781 -0.6083517186 0.5501090515
| 17> C 2.3755206073 -1.3031195445 -0.0599450467
| 18> H -3.0341298578 -0.7904041331 1.2397187179
| 19> H -2.6885549971 -2.1883834477 0.2208627875
| 20> H -1.3997546878 -1.4618813712 1.173164418
| 21> H -1.1658084496 -0.7565852583 -1.1789786622
| 22> H -2.8475460805 -0.2376129548 -1.221220468
| 23> H -2.379609622 1.5410018205 0.4236529461
| 24> H -1.386164303 1.6943783858 -1.0328151333
| 25> H -0.4444116316 0.5678717156 1.65159714
| 26> H -0.0491359434 2.1549365344 0.9491376964
| 27> H 2.3605926212 -2.3055008285 0.356703089
| 28> H 3.3119852112 -0.7983313522 0.1789083017
| 29> H 2.2466778813 -1.3232154337 -1.1429274601
| 30> *
| 31>
| 32>                          ****END OF INPUT****

CARTESIAN COORDINATES (ANGSTROEM)
---------------------------------
  C     -2.290998   -1.246275    0.589919
  C     -1.968651   -0.320933   -0.578390
  C     -1.564490    1.088289   -0.142207
  C     -0.297839    1.117203    0.724182
  C      0.861108    0.513220   -0.023019
  O      1.352012    0.968090   -1.035294
  O      1.285015   -0.608352    0.550109
  C      2.375521   -1.303120   -0.059945
  H     -3.034130   -0.790404    1.239719
  H     -2.688555   -2.188383    0.220863
  H     -1.399755   -1.461881    1.173164
  H     -1.165808   -0.756585   -1.178979
  H     -2.847546   -0.237613   -1.221220
  H     -2.379610    1.541002    0.423653
  H     -1.386164    1.694378   -1.032815
  H     -0.444412    0.567872    1.651597
  H     -0.049136    2.154937    0.949138
  H      2.360593   -2.305501    0.356703
  H      3.311985   -0.798331    0.178908
  H      2.246678   -1.323215   -1.142927

 Total Charge           Charge          ....    0
 Multiplicity           Mult            ....    1
 Number of Electrons    NEL             ....   64
 Basis Dimension        Dim             ....  222

ORBITAL ENERGIES
----------------

  NO   OCC          E(Eh)            E(eV)
   0   2.0000     -19.005444      -517.1644
   1   2.0000     -18.944222      -515.4985
   2   2.0000     -10.162332      -276.5311
   3   2.0000     -10.076082      -274.1841
   4   2.0000     -10.035033      -273.0671
   5   2.0000     -10.027307      -272.8569
   6   2.0000     -10.019948      -272.6566
   7   2.0000     -10.008330      -272.3405
   8   2.0000      -1.080104       -29.3911
   9   2.0000      -0.989336       -26.9212
  10   2.0000      -0.773666       -21.0525
  11   2.0000      -0.719168       -19.5696
  12   2.0000      -0.679355       -18.4862
  13   2.0000      -0.616339       -16.7714
  14   2.0000      -0.550166       -14.9708
  15   2.0000      -0.521162       -14.1815
  16   2.0000      -0.469422       -12.7736
  17   2.0000      -0.461353       -12.5541
  18   2.0000      -0.450388       -12.2557
  19   2.0000      -0.421270       -11.4633
  20   2.0000      -0.418503       -11.3881
  21   2.0000      -0.386830       -10.5262
  22   2.0000      -0.372117       -10.1258
  23   2.0000      -0.355955        -9.6860
  24   2.0000      -0.347886        -9.4664
  25   2.0000      -0.339796        -9.2463
  26   2.0000      -0.319793        -8.7020
  27   2.0000      -0.297211        -8.0875
  28   2.0000      -0.291181        -7.9234
  29   2.0000      -0.289803        -7.8859
  30   2.0000      -0.280909        -7.6439
  31   2.0000      -0.252528        -6.8716
  32   0.0000      -0.024522        -0.6673
  33   0.0000       0.067276         1.8307
  34   0.0000       0.098184         2.6717
  35   0.0000       0.117624         3.2007
  36   0.0000       0.121949         3.3184

MULLIKEN ATOMIC CHARGES
-----------------------
   0 C :   -0.531745
   1 C :   -0.224746
   2 C :   -0.300665
   3 C :   -0.342333
   4 C :    0.382627
   5 O :   -0.500885
   6 O :   -0.193239
   7 C :   -0.327676
   8 H :    0.159344
   9 H :    0.157695
  10 H :    0.163153
  11 H :    0.152561
  12 H :    0.156154
  13 H :    0.171193
  14 H :    0.165258
  15 H :    0.186783
  16 H :    0.190940
  17 H :    0.178100
  18 H :    0.179738
  19 H :    0.177743
Sum of atomic charges:    0.0000000

LOEWDIN ATOMIC CHARGES
----------------------
   0 C :   -0.431245
   1 C :   -0.313702
   2 C :   -0.285639
   3 C :   -0.228540
   4 C :    0.358819
   5 O :   -0.488504
   6 O :   -0.607287
   7 C :   -0.042869
   8 H :    0.154411
   9 H :    0.154718
  10 H :    0.154142
  11 H :    0.158051
  12 H :    0.157686
  13 H :    0.164333
  14 H :    0.165656
  15 H :    0.184639
  16 H :    0.189724
  17 H :    0.188062
  18 H :    0.182266
  19 H :    0.185280

  Mayer bond orders larger than 0.100000
B(  0-C ,  1-C ) :   0.8872 B(  0-C ,  8-H ) :   0.9784 B(  0-C ,  9-H ) :   0.9673
B(  0-C , 10-H ) :   0.9741 B(  1-C ,  2-C ) :   0.8939 B(  1-C , 11-H ) :   0.9677
B(  1-C , 12-H ) :   0.9579 B(  2-C ,  3-C ) :   0.8569 B(  2-C , 13-H ) :   0.9759
B(  2-C , 14-H ) :   0.9773 B(  3-C ,  4-C ) :   0.9292 B(  3-C , 15-H ) :   0.9952
B(  3-C , 16-H ) :   0.9357 B(  4-C ,  5-O ) :   1.7616 B(  4-C ,  6-O ) :   1.0805
B(  6-O ,  7-C ) :   0.8320 B(  7-C , 17-H ) :   0.9595 B(  7-C , 18-H ) :   0.9534
B(  7-C , 19-H ) :   0.9595

Dispersion correction           -0.005438532
FINAL SINGLE POINT ENERGY      -386.235721703543

DIPOLE MOMENT
-------------

Method             : SCF
Type of density    : Electron Density
Multiplicity       :   1
Irrep              :   0
Energy             :  -386.2423469392417701 Eh
Relativity type    :
Basis              : AO
                                X                 Y                 Z
Electronic contribution:      6.673031909       2.967486353      -0.717680919
Nuclear contribution   :     -6.974500492      -3.657011774       1.510574842
                        -----------------------------------------
Total Dipole Moment    :     -0.301468583      -0.689525421       0.792893923
                        -----------------------------------------
Magnitude (a.u.)       :      1.093164849
Magnitude (Debye)      :      2.778604226

Rotational constants in cm-1:             0.100781             0.044995             0.036955
Rotational constants in MHz :          3021.332732          1348.923076          1107.881521

                             ****ORCA TERMINATED NORMALLY****
TOTAL RUN TIME: 0 days 0 hours 0 minutes 35 seconds 203 msec
