                         Program Version 6.0.0  -   RELEASE  -
|  1> ! pbe def2-sv(p) def2/J RI DEFGRID1 loosescf d4 GCP(DFT/SV(P)) printgap
|  2> %output
|  3>     printlevel normal
|  4> end
|  5> * xyz 0 1
|  6> C -2.4784595245 -0.9755457104 0.9439626952
|  7> C -2.5538550578 0.0796050765 -0.1529297169
|  8> C -1.2892916847 0.0846776036 -1.0179035591
|  9> C -0.0946185595 0.5354043432 -0.2172602596
| 10> O -0.0329787923 1.5682954119 0.4185149219
| 11> O 0.9016591293 -0.3354554806 -0.2893287881
| 12> C 2.1238451529 -0.0354206232 0.4060727973
| 13> C 3.232600909 -0.8812515933 -0.1904238857
| 14> H -3.3937017815 -0.9793161117 1.5297528902
| 15> H -2.337019387 -1.9643993528 0.5144412667
| 16> H -1.6452597414 -0.7681287921 1.613068935
| 17> H -2.6730879466 1.0677329225 0.2955146068
| 18> H -3.4159987776 -0.1153869854 -0.7910628752
| 19> H -1.4157389521 0.7908255021 -1.8403084981
| 20> H -1.084575374 -0.9065819443 -1.4203231609
| 21> H 2.3254802865 1.0362270343 0.3067878275
| 22> H 1.9745854637 -0.2607556642 1.4669742068
| 23> H 2.9862022394 -1.9345343367 -0.0956918811
| 24> H 3.3589874609 -0.6442235414 -1.2428056842
| 25> H 4.1599306173 -0.6803341275 0.335738703
| 26> *
| 27>
| 28>                          ****END OF INPUT****

CARTESIAN COORDINATES (ANGSTROEM)
---------------------------------
  C     -2.478460   -0.975546    0.943963
  C     -2.553855    0.079605   -0.152930
  C     -1.289292    0.084678   -1.017904
  C     -0.094619    0.535404   -0.217260
  O     -0.032979    1.568295    0.418515
  O      0.901659   -0.335455   -0.289329
  C      2.123845   -0.035421    0.406073
  C      3.232601   -0.881252   -0.190424
  H     -3.393702   -0.979316    1.529753
  H     -2.337019   -1.964399    0.514441
  H     -1.645260   -0.768129    1.613069
  H     -2.673088    1.067733    0.295515
  H     -3.415999   -0.115387   -0.791063
  H     -1.415739    0.790826   -1.840308
  H     -1.084575   -0.906582   -1.420323
  H      2.325480    1.036227    0.306788
  H      1.974585   -0.260756    1.466974
  H      2.986202   -1.934534   -0.095692
  H      3.358987   -0.644224   -1.242806
  H      4.159931   -0.680334    0.335739

 Total Charge           Charge          ....    0
 Multiplicity           Mult            ....    1
 Number of Electrons    NEL             ....   64
 Basis Dimension        Dim             ....  136

ORBITAL ENERGIES
----------------

  NO   OCC          E(Eh)            E(eV)
   0   2.0000     -18.797927      -511.5176
   1   2.0000     -18.729661      -509.6600
   2   2.0000     -10.003539      -272.2101
   3   2.0000      -9.946513      -270.6584
   4   2.0000      -9.895591      -269.2727
   5   2.0000      -9.890448      -269.1328
   6   2.0000      -9.889628      -269.1105
   7   2.0000      -9.876803      -268.7615
   8   2.0000      -1.004111       -27.3232
   9   2.0000      -0.906845       -24.6765
  10   2.0000      -0.727515       -19.7967
  11   2.0000      -0.699912       -19.0456
  12   2.0000      -0.636394       -17.3172
  13   2.0000      -0.584108       -15.8944
  14   2.0000      -0.530873       -14.4458
  15   2.0000      -0.502570       -13.6756
  16   2.0000      -0.452567       -12.3150
  17   2.0000      -0.440357       -11.9827
  18   2.0000      -0.412043       -11.2123
  19   2.0000      -0.405968       -11.0469
  20   2.0000      -0.388389       -10.5686
  21   2.0000      -0.363416        -9.8891
  22   2.0000      -0.362638        -9.8679
  23   2.0000      -0.351464        -9.5638
  24   2.0000      -0.347341        -9.4516
  25   2.0000      -0.323213        -8.7951
  26   2.0000      -0.307913        -8.3787
  27   2.0000      -0.296890        -8.0788
  28   2.0000      -0.296188        -8.0597
  29   2.0000      -0.290286        -7.8991
  30   2.0000      -0.255802        -6.9607
  31   2.0000      -0.215857        -5.8738
  32   0.0000      -0.019408        -0.5281
  33   0.0000       0.038009         1.0343
  34   0.0000       0.051916         1.4127
  35   0.0000       0.072400         1.9701
  36   0.0000       0.080055         2.1784

MULLIKEN ATOMIC CHARGES
-----------------------
   0 C :   -0.289552
   1 C :   -0.199417
   2 C :   -0.121459
   3 C :    0.088465
   4 O :   -0.214527
   5 O :   -0.236633
   6 C :   -0.031216
   7 C :   -0.275258
   8 H :    0.107821
   9 H :    0.098662
  10 H :    0.116018
  11 H :    0.108483
  12 H :    0.091173
  13 H :    0.112304
  14 H :    0.091967
  15 H :    0.110306
  16 H :    0.103361
  17 H :    0.114042
  18 H :    0.114465
  19 H :    0.110994
Sum of atomic charges:    0.0000000

LOEWDIN ATOMIC CHARGES
----------------------
   0 C :   -0.342447
   1 C :   -0.227371
   2 C :   -0.247077
   3 C :    0.034244
   4 O :   -0.173788
   5 O :   -0.068097
   6 C :   -0.110308
   7 C :   -0.350697
   8 H :    0.121667
   9 H :    0.117170
  10 H :    0.120349
  11 H :    0.124885
  12 H :    0.117732
  13 H :    0.142111
  14 H :    0.125980
  15 H :    0.117864
  16 H :    0.115474
  17 H :    0.126046
  18 H :    0.126291
  19 H :    0.129974

  Mayer bond orders larger than 0.100000
B(  0-C ,  1-C ) :   1.1542 B(  0-C ,  8-H ) :   0.9520 B(  0-C ,  9-H ) :   0.9538
B(  0-C , 10-H ) :   0.9492 B(  1-C ,  2-C ) :   1.1132 B(  1-C , 11-H ) :   0.9194
B(  1-C , 12-H ) :   0.9284 B(  2-C ,  3-C ) :   1.0221 B(  2-C , 13-H ) :   0.8912
B(  2-C , 14-H ) :   0.9112 B(  3-C ,  4-O ) :   2.0436 B(  3-C ,  5-O ) :   1.2175
B(  5-O ,  6-C ) :   0.9119 B(  6-C ,  7-C ) :   1.1539 B(  6-C , 15-H ) :   0.9224
B(  6-C , 16-H ) :   0.9353 B(  7-C , 17-H ) :   0.9487 B(  7-C , 18-H ) :   0.9519
B(  7-C , 19-H ) :   0.9448

Dispersion correction           -0.014873373
FINAL SINGLE POINT ENERGY      -385.458068309040

DIPOLE MOMENT
-------------

Method             : SCF
Type of density    : Electron Density
Multiplicity       :   1
Irrep              :   0
Energy             :  -385.5330445537400692 Eh
Relativity type    :
Basis              : AO
                                X                 Y                 Z
Electronic contribution:      1.351482835       4.380859384      -0.869493973
Nuclear contribution   :     -1.075576213      -5.009237685       0.632444613
                        -----------------------------------------
Total Dipole Moment    :      0.275906622      -0.628378301      -0.237049360
                        -----------------------------------------
Magnitude (a.u.)       :      0.726068972
Magnitude (Debye)      :      1.845520660

Rotational constants in cm-1:             0.135823             0.033673             0.031562
Rotational constants in MHz :          4071.871300          1009.494499           946.198112

                             ****ORCA TERMINATED NORMALLY****
TOTAL RUN TIME: 0 days 0 hours 0 minutes 10 seconds 515 msec
