                         Program Version 6.0.0  -   RELEASE  -
|  1> ! r2scan-3c def2/J RI DEFGRID2 scfconv6 printgap
|  2> %output
|  3>     printlevel normal
|  4> end
|  5> * xyz 0 1
|  6> C -3.6271320127 -0.7265685672 0.2710758172
|  7> C -2.3208609405 -0.3517972211 -0.4163370316
|  8> C -1.2187817007 -0.0500528343 0.6024047138
|  9> C 0.0286623917 0.4539856426 -0.0741494028
| 10> O 0.0537824579 1.2790154608 -0.9648301786
| 11> O 1.1193951398 -0.1135612262 0.4209562734
| 12> C 2.3939531626 0.2731574497 -0.122840907
| 13> C 3.4236715105 -0.756297489 0.3012436789
| 14> H -3.9808752849 0.0928356452 0.89154363
| 15> H -4.3893351615 -0.9516235413 -0.4696018348
| 16> H -3.4880432438 -1.6018466016 0.9003783942
| 17> H -2.464476573 0.5293089937 -1.0446402569
| 18> H -1.9972371393 -1.1698425624 -1.0628638029
| 19> H -0.9663894315 -0.9310253513 1.1913723408
| 20> H -1.5619758747 0.7371635767 1.2779431033
| 21> H 2.3005449238 0.3362566733 -1.2119355187
| 22> H 2.6391622897 1.2691828218 0.2593877826
| 23> H 3.474309705 -0.8052515767 1.3847324347
| 24> H 3.1523161385 -1.7358080186 -0.0813625318
| 25> H 4.3950453664 -0.4751333173 -0.0915879597
| 26> *
| 27>
| 28>                          ****END OF INPUT****

CARTESIAN COORDINATES (ANGSTROEM)
---------------------------------
  C     -3.627132   -0.726569    0.271076
  C     -2.320861   -0.351797   -0.416337
  C     -1.218782   -0.050053    0.602405
  C      0.028662    0.453986   -0.074149
  O      0.053782    1.279015   -0.964830
  O      1.119395   -0.113561    0.420956
  C      2.393953    0.273157   -0.122841
  C      3.423672   -0.756297    0.301244
  H     -3.980875    0.092836    0.891544
  H     -4.389335   -0.951624   -0.469602
  H     -3.488043   -1.601847    0.900378
  H     -2.464477    0.529309   -1.044640
  H     -1.997237   -1.169843   -1.062864
  H     -0.966389   -0.931025    1.191372
  H     -1.561976    0.737164    1.277943
  H      2.300545    0.336257   -1.211936
  H      2.639162    1.269183    0.259388
  H      3.474310   -0.805252    1.384732
  H      3.152316   -1.735808   -0.081363
  H      4.395045   -0.475133   -0.091588

 Total Charge           Charge          ....    0
 Multiplicity           Mult            ....    1
 Number of Electrons    NEL             ....   64
 Basis Dimension        Dim             ....  222

ORBITAL ENERGIES
----------------

  NO   OCC          E(Eh)            E(eV)
   0   2.0000     -18.996407      -516.9185
   1   2.0000     -18.925990      -515.0024
   2   2.0000     -10.150205      -276.2011
   3   2.0000     -10.090876      -274.5867
   4   2.0000     -10.040580      -273.2181
   5   2.0000     -10.032044      -272.9858
   6   2.0000     -10.032006      -272.9848
   7   2.0000     -10.020496      -272.6716
   8   2.0000      -1.070957       -29.1422
   9   2.0000      -0.973386       -26.4872
  10   2.0000      -0.771965       -21.0062
  11   2.0000      -0.743651       -20.2358
  12   2.0000      -0.680402       -18.5147
  13   2.0000      -0.615091       -16.7375
  14   2.0000      -0.563994       -15.3471
  15   2.0000      -0.530873       -14.4458
  16   2.0000      -0.466482       -12.6936
  17   2.0000      -0.461554       -12.5595
  18   2.0000      -0.444925       -12.1070
  19   2.0000      -0.426555       -11.6072
  20   2.0000      -0.401592       -10.9279
  21   2.0000      -0.382694       -10.4136
  22   2.0000      -0.374667       -10.1952
  23   2.0000      -0.370082       -10.0704
  24   2.0000      -0.358230        -9.7479
  25   2.0000      -0.329720        -8.9721
  26   2.0000      -0.328686        -8.9440
  27   2.0000      -0.314103        -8.5472
  28   2.0000      -0.306333        -8.3357
  29   2.0000      -0.302902        -8.2424
  30   2.0000      -0.270983        -7.3738
  31   2.0000      -0.233875        -6.3641
  32   0.0000      -0.013310        -0.3622
  33   0.0000       0.078167         2.1270
  34   0.0000       0.097625         2.6565
  35   0.0000       0.103189         2.8079
  36   0.0000       0.119550         3.2531

MULLIKEN ATOMIC CHARGES
-----------------------
   0 C :   -0.469525
   1 C :   -0.229027
   2 C :   -0.339799
   3 C :    0.390838
   4 O :   -0.431809
   5 O :   -0.168013
   6 C :   -0.152777
   7 C :   -0.441233
   8 H :    0.144493
   9 H :    0.150153
  10 H :    0.140991
  11 H :    0.169250
  12 H :    0.137506
  13 H :    0.164525
  14 H :    0.166969
  15 H :    0.167581
  16 H :    0.148471
  17 H :    0.152065
  18 H :    0.152261
  19 H :    0.147079
Sum of atomic charges:   -0.0000000

LOEWDIN ATOMIC CHARGES
----------------------
   0 C :   -0.421366
   1 C :   -0.292331
   2 C :   -0.231279
   3 C :    0.359242
   4 O :   -0.434843
   5 O :   -0.598976
   6 C :    0.033236
   7 C :   -0.386944
   8 H :    0.150306
   9 H :    0.152807
  10 H :    0.149764
  11 H :    0.168133
  12 H :    0.155572
  13 H :    0.177216
  14 H :    0.180959
  15 H :    0.185171
  16 H :    0.175761
  17 H :    0.159077
  18 H :    0.159082
  19 H :    0.159412

  Mayer bond orders larger than 0.100000
B(  0-C ,  1-C ) :   0.8870 B(  0-C ,  8-H ) :   0.9885 B(  0-C ,  9-H ) :   0.9745
B(  0-C , 10-H ) :   0.9787 B(  1-C ,  2-C ) :   0.9255 B(  1-C , 11-H ) :   0.9648
B(  1-C , 12-H ) :   0.9592 B(  2-C ,  3-C ) :   0.9759 B(  2-C , 13-H ) :   0.9815
B(  2-C , 14-H ) :   0.9541 B(  3-C ,  4-O ) :   1.8027 B(  3-C ,  5-O ) :   1.0811
B(  5-O ,  6-C ) :   0.7980 B(  6-C ,  7-C ) :   0.9429 B(  6-C , 15-H ) :   0.9606
B(  6-C , 16-H ) :   0.9460 B(  7-C , 17-H ) :   0.9695 B(  7-C , 18-H ) :   0.9745
B(  7-C , 19-H ) :   0.9682

Dispersion correction           -0.004791180
FINAL SINGLE POINT ENERGY      -386.235850740943

DIPOLE MOMENT
-------------

Method             : SCF
Type of density    : Electron Density
Multiplicity       :   1
Irrep              :   0
Energy             :  -386.2427259859672972 Eh
Relativity type    :
Basis              : AO
                                X                 Y                 Z
Electronic contribution:      2.990123212       3.841115278      -1.333344083
Nuclear contribution   :     -2.691048298      -4.397527595       1.815136406
                        -----------------------------------------
Total Dipole Moment    :      0.299074913      -0.556412317       0.481792324
                        -----------------------------------------
Magnitude (a.u.)       :      0.794458503
Magnitude (Debye)      :      2.019353035

Rotational constants in cm-1:             0.181643             0.027882             0.025499
Rotational constants in MHz :          5445.523854           835.870898           764.451205

                             ****ORCA TERMINATED NORMALLY****
TOTAL RUN TIME: 0 days 0 hours 0 minutes 31 seconds 602 msec
