                         Program Version 6.0.0  -   RELEASE  -
|  1> ! r2scan-3c def2/J RI DEFGRID2 scfconv6 printgap
|  2> %output
|  3>     printlevel normal
|  4> end
|  5> %cpcm
|  6>     smd true
|  7>     smdsolvent "water"
|  8> end
|  9> * xyz 0 1
| 10> C -3.6271320127 -0.7265685672 0.2710758172
| 11> C -2.3208609405 -0.3517972211 -0.4163370316
| 12> C -1.2187817007 -0.0500528343 0.6024047138
| 13> C 0.0286623917 0.4539856426 -0.0741494028
| 14> O 0.0537824579 1.2790154608 -0.9648301786
| 15> O 1.1193951398 -0.1135612262 0.4209562734
| 16> C 2.3939531626 0.2731574497 -0.122840907
| 17> C 3.4236715105 -0.756297489 0.3012436789
| 18> H -3.9808752849 0.0928356452 0.89154363
| 19> H -4.3893351615 -0.9516235413 -0.4696018348
| 20> H -3.4880432438 -1.6018466016 0.9003783942
| 21> H -2.464476573 0.5293089937 -1.0446402569
| 22> H -1.9972371393 -1.1698425624 -1.0628638029
| 23> H -0.9663894315 -0.9310253513 1.1913723408
| 24> H -1.5619758747 0.7371635767 1.2779431033
| 25> H 2.3005449238 0.3362566733 -1.2119355187
| 26> H 2.6391622897 1.2691828218 0.2593877826
| 27> H 3.474309705 -0.8052515767 1.3847324347
| 28> H 3.1523161385 -1.7358080186 -0.0813625318
| 29> H 4.3950453664 -0.4751333173 -0.0915879597
| 30> *
| 31>
| 32>                          ****END OF INPUT****

CARTESIAN COORDINATES (ANGSTROEM)
---------------------------------
  C     -3.627132   -0.726569    0.271076
  C     -2.320861   -0.351797   -0.416337
  C     -1.218782   -0.050053    0.602405
  C      0.028662    0.453986   -0.074149
  O      0.053782    1.279015   -0.964830
  O      1.119395   -0.113561    0.420956
  C      2.393953    0.273157   -0.122841
  C      3.423672   -0.756297    0.301244
  H     -3.980875    0.092836    0.891544
  H     -4.389335   -0.951624   -0.469602
  H     -3.488043   -1.601847    0.900378
  H     -2.464477    0.529309   -1.044640
  H     -1.997237   -1.169843   -1.062864
  H     -0.966389   -0.931025    1.191372
  H     -1.561976    0.737164    1.277943
  H      2.300545    0.336257   -1.211936
  H      2.639162    1.269183    0.259388
  H      3.474310   -0.805252    1.384732
  H      3.152316   -1.735808   -0.081363
  H      4.395045   -0.475133   -0.091588

 Total Charge           Charge          ....    0
 Multiplicity           Mult            ....    1
 Number of Electrons    NEL             ....   64
 Basis Dimension        Dim             ....  222

ORBITAL ENERGIES
----------------

  NO   OCC          E(Eh)            E(eV)
   0   2.0000     -19.002685      -517.0894
   1   2.0000     -18.942979      -515.4647
   2   2.0000     -10.161770      -276.5158
   3   2.0000     -10.083523      -274.3866
   4   2.0000     -10.035042      -273.0674
   5   2.0000     -10.026669      -272.8395
   6   2.0000     -10.018775      -272.6247
   7   2.0000     -10.011083      -272.4154
   8   2.0000      -1.079031       -29.3619
   9   2.0000      -0.988099       -26.8875
  10   2.0000      -0.767663       -20.8892
  11   2.0000      -0.736221       -20.0336
  12   2.0000      -0.674129       -18.3440
  13   2.0000      -0.608647       -16.5621
  14   2.0000      -0.557730       -15.1766
  15   2.0000      -0.529924       -14.4200
  16   2.0000      -0.469300       -12.7703
  17   2.0000      -0.461719       -12.5640
  18   2.0000      -0.448566       -12.2061
  19   2.0000      -0.428864       -11.6700
  20   2.0000      -0.397691       -10.8217
  21   2.0000      -0.377350       -10.2682
  22   2.0000      -0.371069       -10.0973
  23   2.0000      -0.360665        -9.8142
  24   2.0000      -0.350436        -9.5359
  25   2.0000      -0.326710        -8.8902
  26   2.0000      -0.323575        -8.8049
  27   2.0000      -0.311903        -8.4873
  28   2.0000      -0.304065        -8.2740
  29   2.0000      -0.296152        -8.0587
  30   2.0000      -0.277838        -7.5604
  31   2.0000      -0.251248        -6.8368
  32   0.0000      -0.022016        -0.5991
  33   0.0000       0.080723         2.1966
  34   0.0000       0.106188         2.8895
  35   0.0000       0.112666         3.0658
  36   0.0000       0.127342         3.4652

MULLIKEN ATOMIC CHARGES
-----------------------
   0 C :   -0.514793
   1 C :   -0.230338
   2 C :   -0.356021
   3 C :    0.438885
   4 O :   -0.519769
   5 O :   -0.184577
   6 C :   -0.153592
   7 C :   -0.488725
   8 H :    0.158752
   9 H :    0.160686
  10 H :    0.156194
  11 H :    0.157117
  12 H :    0.155826
  13 H :    0.180024
  14 H :    0.197520
  15 H :    0.172067
  16 H :    0.172021
  17 H :    0.164433
  18 H :    0.165537
  19 H :    0.168754
Sum of atomic charges:    0.0000000

LOEWDIN ATOMIC CHARGES
----------------------
   0 C :   -0.426301
   1 C :   -0.292960
   2 C :   -0.227927
   3 C :    0.370248
   4 O :   -0.497527
   5 O :   -0.600252
   6 C :    0.035898
   7 C :   -0.389912
   8 H :    0.154331
   9 H :    0.155507
  10 H :    0.154554
  11 H :    0.162823
  12 H :    0.160261
  13 H :    0.185061
  14 H :    0.192241
  15 H :    0.187347
  16 H :    0.183636
  17 H :    0.162464
  18 H :    0.162364
  19 H :    0.168143

  Mayer bond orders larger than 0.100000
B(  0-C ,  1-C ) :   0.8862 B(  0-C ,  8-H ) :   0.9850 B(  0-C ,  9-H ) :   0.9713
B(  0-C , 10-H ) :   0.9767 B(  1-C ,  2-C ) :   0.9124 B(  1-C , 11-H ) :   0.9652
B(  1-C , 12-H ) :   0.9595 B(  2-C ,  3-C ) :   0.9775 B(  2-C , 13-H ) :   0.9735
B(  2-C , 14-H ) :   0.9420 B(  3-C ,  4-O ) :   1.7371 B(  3-C ,  5-O ) :   1.1086
B(  5-O ,  6-C ) :   0.7847 B(  6-C ,  7-C ) :   0.9428 B(  6-C , 15-H ) :   0.9548
B(  6-C , 16-H ) :   0.9373 B(  7-C , 17-H ) :   0.9668 B(  7-C , 18-H ) :   0.9730
B(  7-C , 19-H ) :   0.9617

Dispersion correction           -0.004791180
FINAL SINGLE POINT ENERGY      -386.241232478254

DIPOLE MOMENT
-------------

Method             : SCF
Type of density    : Electron Density
Multiplicity       :   1
Irrep              :   0
Energy             :  -386.2481077232783946 Eh
Relativity type    :
Basis              : AO
                                X                 Y                 Z
Electronic contribution:      3.078101284       3.611568320      -1.078092250
Nuclear contribution   :     -2.691048298      -4.397527595       1.815136406
                        -----------------------------------------
Total Dipole Moment    :      0.387052985      -0.785959275       0.737044156
                        -----------------------------------------
Magnitude (a.u.)       :      1.144891298
Magnitude (Debye)      :      2.910082412

Rotational constants in cm-1:             0.181643             0.027882             0.025499
Rotational constants in MHz :          5445.523854           835.870898           764.451205

                             ****ORCA TERMINATED NORMALLY****
TOTAL RUN TIME: 0 days 0 hours 0 minutes 37 seconds 112 msec
