                         Program Version 6.0.0  -   RELEASE  -
|  1> ! pbe def2-sv(p) def2/J RI DEFGRID1 loosescf d4 GCP(DFT/SV(P)) printgap
|  2> %output
|  3>     printlevel normal
|  4> end
|  5> * xyz 0 1
|  6> C 3.3565437527 -0.7471806119 -0.169469752
|  7> C 2.3470967685 0.2651687086 0.3586029687
|  8> C 0.9714391087 0.0741975685 -0.2759105937
|  9> C -0.0436001299 1.0872389176 0.2497497041
| 10> C -1.4154477581 0.9247215765 -0.3787233111
| 11> Cl -2.170075836 -0.6394099306 0.0985009208
| 12> H 4.3273926727 -0.5982462148 0.2964599347
| 13> H 3.4721218096 -0.6442346758 -1.2460015346
| 14> H 3.0252647048 -1.7612593582 0.0430573172
| 15> H 2.2622058233 0.1604798145 1.4423587147
| 16> H 2.7038139875 1.2759323976 0.1494771525
| 17> H 0.6142912372 -0.9361060937 -0.0652905414
| 18> H 1.0566176464 0.1768303758 -1.3599892232
| 19> H 0.3015535904 2.0982710676 0.0231927937
| 20> H -0.1263402271 0.9935660937 1.3339799656
| 21> H -2.1034683489 1.6990329112 -0.0451896263
| 22> H -1.3594858715 0.9106724172 -1.4657627365
| 23> *
| 24>
| 25>                          ****END OF INPUT****

CARTESIAN COORDINATES (ANGSTROEM)
---------------------------------
  C      3.356544   -0.747181   -0.169470
  C      2.347097    0.265169    0.358603
  C      0.971439    0.074198   -0.275911
  C     -0.043600    1.087239    0.249750
  C     -1.415448    0.924722   -0.378723
  Cl    -2.170076   -0.639410    0.098501
  H      4.327393   -0.598246    0.296460
  H      3.472122   -0.644235   -1.246002
  H      3.025265   -1.761259    0.043057
  H      2.262206    0.160480    1.442359
  H      2.703814    1.275932    0.149477
  H      0.614291   -0.936106   -0.065291
  H      1.056618    0.176830   -1.359989
  H      0.301554    2.098271    0.023193
  H     -0.126340    0.993566    1.333980
  H     -2.103468    1.699033   -0.045190
  H     -1.359486    0.910672   -1.465763

 Total Charge           Charge          ....    0
 Multiplicity           Mult            ....    1
 Number of Electrons    NEL             ....   58
 Basis Dimension        Dim             ....  110

ORBITAL ENERGIES
----------------

  NO   OCC          E(Eh)            E(eV)
   0   2.0000    -100.615205     -2737.8789
   1   2.0000      -9.939464      -270.4666
   2   2.0000      -9.895393      -269.2673
   3   2.0000      -9.884485      -268.9705
   4   2.0000      -9.883700      -268.9492
   5   2.0000      -9.872829      -268.6533
   6   2.0000      -9.150921      -249.0092
   7   2.0000      -6.982420      -190.0013
   8   2.0000      -6.970706      -189.6825
   9   2.0000      -6.970480      -189.6764
  10   2.0000      -0.775351       -21.0984
  11   2.0000      -0.719010       -19.5653
  12   2.0000      -0.667167       -18.1545
  13   2.0000      -0.600084       -16.3291
  14   2.0000      -0.534130       -14.5344
  15   2.0000      -0.517178       -14.0731
  16   2.0000      -0.436404       -11.8751
  17   2.0000      -0.416732       -11.3399
  18   2.0000      -0.396856       -10.7990
  19   2.0000      -0.379428       -10.3248
  20   2.0000      -0.367092        -9.9891
  21   2.0000      -0.348066        -9.4714
  22   2.0000      -0.328090        -8.9278
  23   2.0000      -0.307766        -8.3747
  24   2.0000      -0.294652        -8.0179
  25   2.0000      -0.289001        -7.8641
  26   2.0000      -0.286281        -7.7901
  27   2.0000      -0.244006        -6.6397
  28   2.0000      -0.241296        -6.5660
  29   0.0000       0.012335         0.3356
  30   0.0000       0.037451         1.0191
  31   0.0000       0.050944         1.3863
  32   0.0000       0.063499         1.7279
  33   0.0000       0.079545         2.1645

MULLIKEN ATOMIC CHARGES
-----------------------
   0 C :   -0.256962
   1 C :   -0.178948
   2 C :   -0.201822
   3 C :   -0.146075
   4 C :   -0.147828
   5 Cl:   -0.157642
   6 H :    0.101809
   7 H :    0.096637
   8 H :    0.099781
   9 H :    0.085734
  10 H :    0.081226
  11 H :    0.093262
  12 H :    0.077766
  13 H :    0.090633
  14 H :    0.096239
  15 H :    0.135475
  16 H :    0.130716
Sum of atomic charges:    0.0000000

LOEWDIN ATOMIC CHARGES
----------------------
   0 C :   -0.339242
   1 C :   -0.233151
   2 C :   -0.233093
   3 C :   -0.247606
   4 C :   -0.267411
   5 Cl:    0.019253
   6 H :    0.118612
   7 H :    0.116532
   8 H :    0.118062
   9 H :    0.115191
  10 H :    0.112293
  11 H :    0.114454
  12 H :    0.113078
  13 H :    0.123758
  14 H :    0.121505
  15 H :    0.124249
  16 H :    0.123515

  Mayer bond orders larger than 0.100000
B(  0-C ,  1-C ) :   1.1591 B(  0-C ,  6-H ) :   0.9530 B(  0-C ,  7-H ) :   0.9546
B(  0-C ,  8-H ) :   0.9542 B(  1-C ,  2-C ) :   1.1367 B(  1-C ,  9-H ) :   0.9255
B(  1-C , 10-H ) :   0.9264 B(  2-C ,  3-C ) :   1.1270 B(  2-C , 11-H ) :   0.9155
B(  2-C , 12-H ) :   0.9232 B(  3-C ,  4-C ) :   1.1057 B(  3-C , 13-H ) :   0.9036
B(  3-C , 14-H ) :   0.9158 B(  4-C ,  5-Cl) :   1.0302 B(  4-C , 15-H ) :   0.9314
B(  4-C , 16-H ) :   0.9257

Dispersion correction           -0.012662017
FINAL SINGLE POINT ENERGY      -656.513683625880

DIPOLE MOMENT
-------------

Method             : SCF
Type of density    : Electron Density
Multiplicity       :   1
Irrep              :   0
Energy             :  -656.5715236419806615 Eh
Relativity type    :
Basis              : AO
                                X                 Y                 Z
Electronic contribution:    -15.838899926      -3.435497753       0.829715112
Nuclear contribution   :     16.210254160       4.024480274      -0.970656708
                        -----------------------------------------
Total Dipole Moment    :      0.371354234       0.588982521      -0.140941596
                        -----------------------------------------
Magnitude (a.u.)       :      0.710400528
Magnitude (Debye)      :      1.805694642

Rotational constants in cm-1:             0.217597             0.035134             0.031998
Rotational constants in MHz :          6523.405030          1053.294247           959.284977

                             ****ORCA TERMINATED NORMALLY****
TOTAL RUN TIME: 0 days 0 hours 0 minutes 7 seconds 12 msec
