                         Program Version 6.0.0  -   RELEASE  -
|  1> ! r2scan-3c def2/J RI DEFGRID2 scfconv6 printgap
|  2> %output
|  3>     printlevel normal
|  4> end
|  5> * xyz 0 1
|  6> C -3.3265638459 0.1323244762 0.8348822227
|  7> C -2.6519183001 -0.6661135871 -0.2751179054
|  8> C -1.1335157992 -0.7540057346 -0.1156543234
|  9> C -0.4509571938 0.6002941807 -0.2960839629
| 10> C 1.0523545014 0.5417734687 -0.2566651639
| 11> O 1.777325355 1.4212341385 -0.6798612603
| 12> O 1.5181904272 -0.5660921431 0.3046014137
| 13> C 2.9367266587 -0.7076154801 0.4074480266
| 14> H -3.0318839626 1.1777200379 0.8019711241
| 15> H -4.4072633027 0.0842780636 0.7270349287
| 16> H -3.0613199163 -0.2723576056 1.8088081438
| 17> H -3.0549462099 -1.6805669589 -0.2740220229
| 18> H -2.8888110574 -0.2171937451 -1.2417633335
| 19> H -0.7379602812 -1.4495802952 -0.8579813223
| 20> H -0.8923642601 -1.1519684743 0.8707675774
| 21> H -0.7520276347 1.2866450654 0.4989618063
| 22> H -0.7357908199 1.0614599669 -1.2438490038
| 23> H 3.101725166 -1.6914081463 0.8353079013
| 24> H 3.3439765072 0.0734671654 1.0506654095
| 25> H 3.3930078237 -0.6258527063 -0.5798909228
| 26> *
| 27>
| 28>                          ****END OF INPUT****

CARTESIAN COORDINATES (ANGSTROEM)
---------------------------------
  C     -3.326564    0.132324    0.834882
  C     -2.651918   -0.666114   -0.275118
  C     -1.133516   -0.754006   -0.115654
  C     -0.450957    0.600294   -0.296084
  C      1.052355    0.541773   -0.256665
  O      1.777325    1.421234   -0.679861
  O      1.518190   -0.566092    0.304601
  C      2.936727   -0.707615    0.407448
  H     -3.031884    1.177720    0.801971
  H     -4.407263    0.084278    0.727035
  H     -3.061320   -0.272358    1.808808
  H     -3.054946   -1.680567   -0.274022
  H     -2.888811   -0.217194   -1.241763
  H     -0.737960   -1.449580   -0.857981
  H     -0.892364   -1.151968    0.870768
  H     -0.752028    1.286645    0.498962
  H     -0.735791    1.061460   -1.243849
  H      3.101725   -1.691408    0.835308
  H      3.343977    0.073467    1.050665
  H      3.393008   -0.625853   -0.579891

 Total Charge           Charge          ....    0
 Multiplicity           Mult            ....    1
 Number of Electrons    NEL             ....   64
 Basis Dimension        Dim             ....  222

ORBITAL ENERGIES
----------------

  NO   OCC          E(Eh)            E(eV)
   0   2.0000     -19.000958      -517.0424
   1   2.0000     -18.926013      -515.0030
   2   2.0000     -10.152304      -276.2582
   3   2.0000     -10.087785      -274.5026
   4   2.0000     -10.043359      -273.2937
   5   2.0000     -10.031240      -272.9639
   6   2.0000     -10.029812      -272.9251
   7   2.0000     -10.020403      -272.6690
   8   2.0000      -1.074553       -29.2401
   9   2.0000      -0.973602       -26.4931
  10   2.0000      -0.780400       -21.2358
  11   2.0000      -0.727561       -19.7979
  12   2.0000      -0.682961       -18.5843
  13   2.0000      -0.627532       -17.0760
  14   2.0000      -0.549085       -14.9414
  15   2.0000      -0.536269       -14.5926
  16   2.0000      -0.472604       -12.8602
  17   2.0000      -0.464194       -12.6314
  18   2.0000      -0.436914       -11.8890
  19   2.0000      -0.432136       -11.7590
  20   2.0000      -0.410761       -11.1774
  21   2.0000      -0.394944       -10.7470
  22   2.0000      -0.375339       -10.2135
  23   2.0000      -0.372313       -10.1312
  24   2.0000      -0.348852        -9.4928
  25   2.0000      -0.335163        -9.1202
  26   2.0000      -0.323106        -8.7922
  27   2.0000      -0.309674        -8.4267
  28   2.0000      -0.302415        -8.2291
  29   2.0000      -0.299602        -8.1526
  30   2.0000      -0.272768        -7.4224
  31   2.0000      -0.232240        -6.3196
  32   0.0000      -0.014133        -0.3846
  33   0.0000       0.061402         1.6708
  34   0.0000       0.093711         2.5500
  35   0.0000       0.097342         2.6488
  36   0.0000       0.114468         3.1148

MULLIKEN ATOMIC CHARGES
-----------------------
   0 C :   -0.495233
   1 C :   -0.208159
   2 C :   -0.273062
   3 C :   -0.343809
   4 C :    0.339277
   5 O :   -0.413205
   6 O :   -0.158063
   7 C :   -0.295058
   8 H :    0.147910
   9 H :    0.149203
  10 H :    0.146474
  11 H :    0.144482
  12 H :    0.134413
  13 H :    0.148860
  14 H :    0.153174
  15 H :    0.176341
  16 H :    0.171797
  17 H :    0.150508
  18 H :    0.160248
  19 H :    0.163904
Sum of atomic charges:    0.0000000

LOEWDIN ATOMIC CHARGES
----------------------
   0 C :   -0.425606
   1 C :   -0.315972
   2 C :   -0.291372
   3 C :   -0.226922
   4 C :    0.357423
   5 O :   -0.427799
   6 O :   -0.611630
   7 C :   -0.041791
   8 H :    0.148428
   9 H :    0.152250
  10 H :    0.150894
  11 H :    0.153631
  12 H :    0.152251
  13 H :    0.162648
  14 H :    0.165379
  15 H :    0.184589
  16 H :    0.182829
  17 H :    0.175868
  18 H :    0.176397
  19 H :    0.178504

  Mayer bond orders larger than 0.100000
B(  0-C ,  1-C ) :   0.8851 B(  0-C ,  8-H ) :   0.9838 B(  0-C ,  9-H ) :   0.9691
B(  0-C , 10-H ) :   0.9806 B(  1-C ,  2-C ) :   0.8788 B(  1-C , 11-H ) :   0.9710
B(  1-C , 12-H ) :   0.9848 B(  2-C ,  3-C ) :   0.9063 B(  2-C , 13-H ) :   0.9707
B(  2-C , 14-H ) :   0.9751 B(  3-C ,  4-C ) :   1.0256 B(  3-C , 15-H ) :   0.9275
B(  3-C , 16-H ) :   0.9696 B(  4-C ,  5-O ) :   1.8388 B(  4-C ,  6-O ) :   1.0759
B(  6-O ,  7-C ) :   0.8465 B(  7-C , 17-H ) :   0.9704 B(  7-C , 18-H ) :   0.9615
B(  7-C , 19-H ) :   0.9618

Dispersion correction           -0.005062673
FINAL SINGLE POINT ENERGY      -386.229022481559

DIPOLE MOMENT
-------------

Method             : SCF
Type of density    : Electron Density
Multiplicity       :   1
Irrep              :   0
Energy             :  -386.2359886767518447 Eh
Relativity type    :
Basis              : AO
                                X                 Y                 Z
Electronic contribution:      8.798052719       2.419843216      -1.882387605
Nuclear contribution   :     -9.073545619      -3.182112940       2.242292645
                        -----------------------------------------
Total Dipole Moment    :     -0.275492900      -0.762269724       0.359905039
                        -----------------------------------------
Magnitude (a.u.)       :      0.886838829
Magnitude (Debye)      :      2.254165161

Rotational constants in cm-1:             0.155551             0.030178             0.027317
Rotational constants in MHz :          4663.304039           904.705546           818.930962

                             ****ORCA TERMINATED NORMALLY****
TOTAL RUN TIME: 0 days 0 hours 0 minutes 27 seconds 782 msec
