                         Program Version 6.0.0  -   RELEASE  -
|  1> ! r2scan-3c def2/J RI DEFGRID2 scfconv6 printgap
|  2> %output
|  3>     printlevel normal
|  4> end
|  5> %cpcm
|  6>     smd true
|  7>     smdsolvent "water"
|  8> end
|  9> * xyz 0 1
| 10> C -3.3265638459 0.1323244762 0.8348822227
| 11> C -2.6519183001 -0.6661135871 -0.2751179054
| 12> C -1.1335157992 -0.7540057346 -0.1156543234
| 13> C -0.4509571938 0.6002941807 -0.2960839629
| 14> C 1.0523545014 0.5417734687 -0.2566651639
| 15> O 1.777325355 1.4212341385 -0.6798612603
| 16> O 1.5181904272 -0.5660921431 0.3046014137
| 17> C 2.9367266587 -0.7076154801 0.4074480266
| 18> H -3.0318839626 1.1777200379 0.8019711241
| 19> H -4.4072633027 0.0842780636 0.7270349287
| 20> H -3.0613199163 -0.2723576056 1.8088081438
| 21> H -3.0549462099 -1.6805669589 -0.2740220229
| 22> H -2.8888110574 -0.2171937451 -1.2417633335
| 23> H -0.7379602812 -1.4495802952 -0.8579813223
| 24> H -0.8923642601 -1.1519684743 0.8707675774
| 25> H -0.7520276347 1.2866450654 0.4989618063
| 26> H -0.7357908199 1.0614599669 -1.2438490038
| 27> H 3.101725166 -1.6914081463 0.8353079013
| 28> H 3.3439765072 0.0734671654 1.0506654095
| 29> H 3.3930078237 -0.6258527063 -0.5798909228
| 30> *
| 31>
| 32>                          ****END OF INPUT****

CARTESIAN COORDINATES (ANGSTROEM)
---------------------------------
  C     -3.326564    0.132324    0.834882
  C     -2.651918   -0.666114   -0.275118
  C     -1.133516   -0.754006   -0.115654
  C     -0.450957    0.600294   -0.296084
  C      1.052355    0.541773   -0.256665
  O      1.777325    1.421234   -0.679861
  O      1.518190   -0.566092    0.304601
  C      2.936727   -0.707615    0.407448
  H     -3.031884    1.177720    0.801971
  H     -4.407263    0.084278    0.727035
  H     -3.061320   -0.272358    1.808808
  H     -3.054946   -1.680567   -0.274022
  H     -2.888811   -0.217194   -1.241763
  H     -0.737960   -1.449580   -0.857981
  H     -0.892364   -1.151968    0.870768
  H     -0.752028    1.286645    0.498962
  H     -0.735791    1.061460   -1.243849
  H      3.101725   -1.691408    0.835308
  H      3.343977    0.073467    1.050665
  H      3.393008   -0.625853   -0.579891

 Total Charge           Charge          ....    0
 Multiplicity           Mult            ....    1
 Number of Electrons    NEL             ....   64
 Basis Dimension        Dim             ....  222

ORBITAL ENERGIES
----------------

  NO   OCC          E(Eh)            E(eV)
   0   2.0000     -19.005325      -517.1612
   1   2.0000     -18.942104      -515.4408
   2   2.0000     -10.162532      -276.5366
   3   2.0000     -10.076905      -274.2065
   4   2.0000     -10.036147      -273.0974
   5   2.0000     -10.021935      -272.7107
   6   2.0000     -10.018208      -272.6093
   7   2.0000     -10.007865      -272.3278
   8   2.0000      -1.080662       -29.4063
   9   2.0000      -0.987429       -26.8693
  10   2.0000      -0.772177       -21.0120
  11   2.0000      -0.720598       -19.6085
  12   2.0000      -0.675038       -18.3687
  13   2.0000      -0.618910       -16.8414
  14   2.0000      -0.541379       -14.7317
  15   2.0000      -0.531631       -14.4664
  16   2.0000      -0.470159       -12.7937
  17   2.0000      -0.462341       -12.5809
  18   2.0000      -0.450118       -12.2483
  19   2.0000      -0.423064       -11.5122
  20   2.0000      -0.405670       -11.0389
  21   2.0000      -0.385814       -10.4985
  22   2.0000      -0.369348       -10.0505
  23   2.0000      -0.366487        -9.9726
  24   2.0000      -0.343182        -9.3385
  25   2.0000      -0.329899        -8.9770
  26   2.0000      -0.321840        -8.7577
  27   2.0000      -0.302309        -8.2263
  28   2.0000      -0.292349        -7.9552
  29   2.0000      -0.289490        -7.8774
  30   2.0000      -0.279664        -7.6100
  31   2.0000      -0.247834        -6.7439
  32   0.0000      -0.021344        -0.5808
  33   0.0000       0.068122         1.8537
  34   0.0000       0.104164         2.8345
  35   0.0000       0.106224         2.8905
  36   0.0000       0.124759         3.3949

MULLIKEN ATOMIC CHARGES
-----------------------
   0 C :   -0.530145
   1 C :   -0.230260
   2 C :   -0.283642
   3 C :   -0.357330
   4 C :    0.388673
   5 O :   -0.505859
   6 O :   -0.171063
   7 C :   -0.330208
   8 H :    0.160711
   9 H :    0.157649
  10 H :    0.156215
  11 H :    0.153156
  12 H :    0.145978
  13 H :    0.160434
  14 H :    0.158935
  15 H :    0.204706
  16 H :    0.186628
  17 H :    0.178787
  18 H :    0.178591
  19 H :    0.178046
Sum of atomic charges:   -0.0000000

LOEWDIN ATOMIC CHARGES
----------------------
   0 C :   -0.433059
   1 C :   -0.315987
   2 C :   -0.291200
   3 C :   -0.224913
   4 C :    0.368698
   5 O :   -0.493838
   6 O :   -0.611273
   7 C :   -0.039498
   8 H :    0.152374
   9 H :    0.153544
  10 H :    0.153394
  11 H :    0.155989
  12 H :    0.155637
  13 H :    0.165042
  14 H :    0.166338
  15 H :    0.196079
  16 H :    0.189124
  17 H :    0.188238
  18 H :    0.182210
  19 H :    0.183102

  Mayer bond orders larger than 0.100000
B(  0-C ,  1-C ) :   0.8824 B(  0-C ,  8-H ) :   0.9796 B(  0-C ,  9-H ) :   0.9678
B(  0-C , 10-H ) :   0.9777 B(  1-C ,  2-C ) :   0.8780 B(  1-C , 11-H ) :   0.9707
B(  1-C , 12-H ) :   0.9858 B(  2-C ,  3-C ) :   0.8969 B(  2-C , 13-H ) :   0.9712
B(  2-C , 14-H ) :   0.9725 B(  3-C ,  4-C ) :   1.0264 B(  3-C , 15-H ) :   0.9122
B(  3-C , 16-H ) :   0.9647 B(  4-C ,  5-O ) :   1.7687 B(  4-C ,  6-O ) :   1.1064
B(  6-O ,  7-C ) :   0.8262 B(  7-C , 17-H ) :   0.9603 B(  7-C , 18-H ) :   0.9560
B(  7-C , 19-H ) :   0.9568

Dispersion correction           -0.005062673
FINAL SINGLE POINT ENERGY      -386.234536721772

DIPOLE MOMENT
-------------

Method             : SCF
Type of density    : Electron Density
Multiplicity       :   1
Irrep              :   0
Energy             :  -386.2415029169641798 Eh
Relativity type    :
Basis              : AO
                                X                 Y                 Z
Electronic contribution:      8.665134978       2.165498871      -1.748600894
Nuclear contribution   :     -9.073545619      -3.182112940       2.242292645
                        -----------------------------------------
Total Dipole Moment    :     -0.408410641      -1.016614069       0.493691751
                        -----------------------------------------
Magnitude (a.u.)       :      1.201680059
Magnitude (Debye)      :      3.054427969

Rotational constants in cm-1:             0.155551             0.030178             0.027317
Rotational constants in MHz :          4663.304039           904.705546           818.930962

                             ****ORCA TERMINATED NORMALLY****
TOTAL RUN TIME: 0 days 0 hours 0 minutes 32 seconds 638 msec
