                         Program Version 6.0.0  -   RELEASE  -
|  1> ! r2scan-3c def2/J RI DEFGRID2 scfconv6 printgap
|  2> %output
|  3>     printlevel normal
|  4> end
|  5> * xyz 0 1
|  6> C -2.5748314262 -0.4749054117 1.1299594933
|  7> C -2.1070736645 -0.8280300027 -0.2767111534
|  8> C -1.3694047335 0.3418147113 -0.9386069519
|  9> C -0.0932892727 0.6739953698 -0.2074505747
| 10> O 0.1585208784 1.7557360012 0.2850820182
| 11> O 0.7316084434 -0.3614179559 -0.1712979472
| 12> C 2.0077406837 -0.225252024 0.4752606361
| 13> C 3.0726295791 -0.8744179149 -0.3914103083
| 14> H -3.2581932303 0.3706700452 1.1040999461
| 15> H -3.0861388707 -1.3194895332 1.5839586738
| 16> H -1.7289315767 -0.2042103488 1.7595344589
| 17> H -2.9692509441 -1.0871472027 -0.8919405442
| 18> H -1.4404048045 -1.6904367746 -0.2397070313
| 19> H -1.9939119412 1.2350852994 -0.9498578604
| 20> H -1.1049450523 0.0715103936 -1.9616565735
| 21> H 2.2054046164 0.8393746698 0.6348232656
| 22> H 1.9324431315 -0.7256392897 1.4450714129
| 23> H 2.8223845217 -1.9166494755 -0.566100495
| 24> H 3.143086001 -0.3650550666 -1.3485683609
| 25> H 4.0308120092 -0.8151702922 0.1142680896
| 26> *
| 27>
| 28>                          ****END OF INPUT****

CARTESIAN COORDINATES (ANGSTROEM)
---------------------------------
  C     -2.574831   -0.474905    1.129959
  C     -2.107074   -0.828030   -0.276711
  C     -1.369405    0.341815   -0.938607
  C     -0.093289    0.673995   -0.207451
  O      0.158521    1.755736    0.285082
  O      0.731608   -0.361418   -0.171298
  C      2.007741   -0.225252    0.475261
  C      3.072630   -0.874418   -0.391410
  H     -3.258193    0.370670    1.104100
  H     -3.086139   -1.319490    1.583959
  H     -1.728932   -0.204210    1.759534
  H     -2.969251   -1.087147   -0.891941
  H     -1.440405   -1.690437   -0.239707
  H     -1.993912    1.235085   -0.949858
  H     -1.104945    0.071510   -1.961657
  H      2.205405    0.839375    0.634823
  H      1.932443   -0.725639    1.445071
  H      2.822385   -1.916649   -0.566100
  H      3.143086   -0.365055   -1.348568
  H      4.030812   -0.815170    0.114268

 Total Charge           Charge          ....    0
 Multiplicity           Mult            ....    1
 Number of Electrons    NEL             ....   64
 Basis Dimension        Dim             ....  222

ORBITAL ENERGIES
----------------

  NO   OCC          E(Eh)            E(eV)
   0   2.0000     -18.996462      -516.9200
   1   2.0000     -18.925715      -514.9949
   2   2.0000     -10.150994      -276.2226
   3   2.0000     -10.090602      -274.5792
   4   2.0000     -10.040445      -273.2144
   5   2.0000     -10.036020      -273.0940
   6   2.0000     -10.032141      -272.9884
   7   2.0000     -10.019754      -272.6514
   8   2.0000      -1.071195       -29.1487
   9   2.0000      -0.973427       -26.4883
  10   2.0000      -0.776003       -21.1161
  11   2.0000      -0.740869       -20.1601
  12   2.0000      -0.677696       -18.4411
  13   2.0000      -0.618717       -16.8361
  14   2.0000      -0.569649       -15.5009
  15   2.0000      -0.531076       -14.4513
  16   2.0000      -0.474203       -12.9037
  17   2.0000      -0.445942       -12.1347
  18   2.0000      -0.441505       -12.0140
  19   2.0000      -0.425565       -11.5802
  20   2.0000      -0.410264       -11.1638
  21   2.0000      -0.387051       -10.5322
  22   2.0000      -0.373537       -10.1645
  23   2.0000      -0.369289       -10.0489
  24   2.0000      -0.355781        -9.6813
  25   2.0000      -0.339398        -9.2355
  26   2.0000      -0.323737        -8.8093
  27   2.0000      -0.312371        -8.5001
  28   2.0000      -0.310071        -8.4375
  29   2.0000      -0.305566        -8.3149
  30   2.0000      -0.269435        -7.3317
  31   2.0000      -0.231203        -6.2914
  32   0.0000      -0.013667        -0.3719
  33   0.0000       0.072978         1.9858
  34   0.0000       0.093194         2.5359
  35   0.0000       0.115142         3.1332
  36   0.0000       0.116707         3.1757

MULLIKEN ATOMIC CHARGES
-----------------------
   0 C :   -0.480150
   1 C :   -0.225173
   2 C :   -0.321800
   3 C :    0.366922
   4 O :   -0.428952
   5 O :   -0.167041
   6 C :   -0.156358
   7 C :   -0.444989
   8 H :    0.149151
   9 H :    0.147350
  10 H :    0.153769
  11 H :    0.145109
  12 H :    0.152258
  13 H :    0.169603
  14 H :    0.159633
  15 H :    0.186216
  16 H :    0.142858
  17 H :    0.152708
  18 H :    0.152235
  19 H :    0.146653
Sum of atomic charges:   -0.0000000

LOEWDIN ATOMIC CHARGES
----------------------
   0 C :   -0.414779
   1 C :   -0.294020
   2 C :   -0.230365
   3 C :    0.354172
   4 O :   -0.437000
   5 O :   -0.602166
   6 C :    0.031649
   7 C :   -0.387057
   8 H :    0.153229
   9 H :    0.151805
  10 H :    0.155892
  11 H :    0.152992
  12 H :    0.164277
  13 H :    0.177461
  14 H :    0.179404
  15 H :    0.194855
  16 H :    0.174115
  17 H :    0.158016
  18 H :    0.158313
  19 H :    0.159208

  Mayer bond orders larger than 0.100000
B(  0-C ,  1-C ) :   0.9130 B(  0-C ,  8-H ) :   0.9783 B(  0-C ,  9-H ) :   0.9705
B(  0-C , 10-H ) :   0.9706 B(  1-C ,  2-C ) :   0.8832 B(  1-C , 11-H ) :   0.9638
B(  1-C , 12-H ) :   0.9726 B(  2-C ,  3-C ) :   0.9645 B(  2-C , 13-H ) :   1.0056
B(  2-C , 14-H ) :   0.9426 B(  3-C ,  4-O ) :   1.8516 B(  3-C ,  5-O ) :   1.0479
B(  5-O ,  6-C ) :   0.7790 B(  6-C ,  7-C ) :   0.9501 B(  6-C , 15-H ) :   0.9672
B(  6-C , 16-H ) :   0.9488 B(  7-C , 17-H ) :   0.9709 B(  7-C , 18-H ) :   0.9737
B(  7-C , 19-H ) :   0.9672

Dispersion correction           -0.005108604
FINAL SINGLE POINT ENERGY      -386.234492456529

DIPOLE MOMENT
-------------

Method             : SCF
Type of density    : Electron Density
Multiplicity       :   1
Irrep              :   0
Energy             :  -386.2411564497729728 Eh
Relativity type    :
Basis              : AO
                                X                 Y                 Z
Electronic contribution:      1.499197749       4.365303046      -0.862535908
Nuclear contribution   :     -1.344934414      -5.239773332       0.643322852
                        -----------------------------------------
Total Dipole Moment    :      0.154263335      -0.874470286      -0.219213057
                        -----------------------------------------
Magnitude (a.u.)       :      0.914630975
Magnitude (Debye)      :      2.324807184

Rotational constants in cm-1:             0.119215             0.036631             0.033539
Rotational constants in MHz :          3573.984231          1098.179734          1005.483506

                             ****ORCA TERMINATED NORMALLY****
TOTAL RUN TIME: 0 days 0 hours 0 minutes 29 seconds 727 msec
