                         Program Version 6.0.0  -   RELEASE  -
|  1> ! r2scan-3c def2/J RI DEFGRID2 scfconv6 printgap
|  2> %output
|  3>     printlevel normal
|  4> end
|  5> %cpcm
|  6>     smd true
|  7>     smdsolvent "water"
|  8> end
|  9> * xyz 0 1
| 10> C -2.5748314262 -0.4749054117 1.1299594933
| 11> C -2.1070736645 -0.8280300027 -0.2767111534
| 12> C -1.3694047335 0.3418147113 -0.9386069519
| 13> C -0.0932892727 0.6739953698 -0.2074505747
| 14> O 0.1585208784 1.7557360012 0.2850820182
| 15> O 0.7316084434 -0.3614179559 -0.1712979472
| 16> C 2.0077406837 -0.225252024 0.4752606361
| 17> C 3.0726295791 -0.8744179149 -0.3914103083
| 18> H -3.2581932303 0.3706700452 1.1040999461
| 19> H -3.0861388707 -1.3194895332 1.5839586738
| 20> H -1.7289315767 -0.2042103488 1.7595344589
| 21> H -2.9692509441 -1.0871472027 -0.8919405442
| 22> H -1.4404048045 -1.6904367746 -0.2397070313
| 23> H -1.9939119412 1.2350852994 -0.9498578604
| 24> H -1.1049450523 0.0715103936 -1.9616565735
| 25> H 2.2054046164 0.8393746698 0.6348232656
| 26> H 1.9324431315 -0.7256392897 1.4450714129
| 27> H 2.8223845217 -1.9166494755 -0.566100495
| 28> H 3.143086001 -0.3650550666 -1.3485683609
| 29> H 4.0308120092 -0.8151702922 0.1142680896
| 30> *
| 31>
| 32>                          ****END OF INPUT****

CARTESIAN COORDINATES (ANGSTROEM)
---------------------------------
  C     -2.574831   -0.474905    1.129959
  C     -2.107074   -0.828030   -0.276711
  C     -1.369405    0.341815   -0.938607
  C     -0.093289    0.673995   -0.207451
  O      0.158521    1.755736    0.285082
  O      0.731608   -0.361418   -0.171298
  C      2.007741   -0.225252    0.475261
  C      3.072630   -0.874418   -0.391410
  H     -3.258193    0.370670    1.104100
  H     -3.086139   -1.319490    1.583959
  H     -1.728932   -0.204210    1.759534
  H     -2.969251   -1.087147   -0.891941
  H     -1.440405   -1.690437   -0.239707
  H     -1.993912    1.235085   -0.949858
  H     -1.104945    0.071510   -1.961657
  H      2.205405    0.839375    0.634823
  H      1.932443   -0.725639    1.445071
  H      2.822385   -1.916649   -0.566100
  H      3.143086   -0.365055   -1.348568
  H      4.030812   -0.815170    0.114268

 Total Charge           Charge          ....    0
 Multiplicity           Mult            ....    1
 Number of Electrons    NEL             ....   64
 Basis Dimension        Dim             ....  222

ORBITAL ENERGIES
----------------

  NO   OCC          E(Eh)            E(eV)
   0   2.0000     -19.001891      -517.0678
   1   2.0000     -18.942402      -515.4490
   2   2.0000     -10.162298      -276.5302
   3   2.0000     -10.082617      -274.3620
   4   2.0000     -10.035243      -273.0728
   5   2.0000     -10.028152      -272.8799
   6   2.0000     -10.018445      -272.6158
   7   2.0000     -10.011677      -272.4316
   8   2.0000      -1.078491       -29.3472
   9   2.0000      -0.987935       -26.8831
  10   2.0000      -0.771209       -20.9857
  11   2.0000      -0.732630       -19.9359
  12   2.0000      -0.671849       -18.2819
  13   2.0000      -0.611988       -16.6530
  14   2.0000      -0.563580       -15.3358
  15   2.0000      -0.528903       -14.3922
  16   2.0000      -0.472374       -12.8539
  17   2.0000      -0.454436       -12.3658
  18   2.0000      -0.444454       -12.0942
  19   2.0000      -0.421238       -11.4625
  20   2.0000      -0.406130       -11.0514
  21   2.0000      -0.381273       -10.3750
  22   2.0000      -0.367858       -10.0099
  23   2.0000      -0.363205        -9.8833
  24   2.0000      -0.351871        -9.5749
  25   2.0000      -0.333569        -9.0769
  26   2.0000      -0.317429        -8.6377
  27   2.0000      -0.309108        -8.4113
  28   2.0000      -0.305315        -8.3080
  29   2.0000      -0.301639        -8.2080
  30   2.0000      -0.275190        -7.4883
  31   2.0000      -0.247400        -6.7321
  32   0.0000      -0.022391        -0.6093
  33   0.0000       0.077119         2.0985
  34   0.0000       0.101694         2.7672
  35   0.0000       0.124153         3.3784
  36   0.0000       0.125340         3.4107

MULLIKEN ATOMIC CHARGES
-----------------------
   0 C :   -0.526462
   1 C :   -0.219736
   2 C :   -0.341094
   3 C :    0.402661
   4 O :   -0.517529
   5 O :   -0.182924
   6 C :   -0.145358
   7 C :   -0.487775
   8 H :    0.162822
   9 H :    0.161626
  10 H :    0.160734
  11 H :    0.162653
  12 H :    0.155584
  13 H :    0.178185
  14 H :    0.189668
  15 H :    0.179343
  16 H :    0.170036
  17 H :    0.165137
  18 H :    0.164407
  19 H :    0.168022
Sum of atomic charges:   -0.0000000

LOEWDIN ATOMIC CHARGES
----------------------
   0 C :   -0.422879
   1 C :   -0.290612
   2 C :   -0.228604
   3 C :    0.363209
   4 O :   -0.500239
   5 O :   -0.601859
   6 C :    0.036897
   7 C :   -0.390374
   8 H :    0.156027
   9 H :    0.156395
  10 H :    0.155929
  11 H :    0.160032
  12 H :    0.165099
  13 H :    0.181100
  14 H :    0.191105
  15 H :    0.193384
  16 H :    0.184873
  17 H :    0.161708
  18 H :    0.161141
  19 H :    0.167668

  Mayer bond orders larger than 0.100000
B(  0-C ,  1-C ) :   0.8985 B(  0-C ,  8-H ) :   0.9772 B(  0-C ,  9-H ) :   0.9665
B(  0-C , 10-H ) :   0.9692 B(  1-C ,  2-C ) :   0.8747 B(  1-C , 11-H ) :   0.9606
B(  1-C , 12-H ) :   0.9721 B(  2-C ,  3-C ) :   0.9643 B(  2-C , 13-H ) :   1.0002
B(  2-C , 14-H ) :   0.9332 B(  3-C ,  4-O ) :   1.7772 B(  3-C ,  5-O ) :   1.0790
B(  5-O ,  6-C ) :   0.7680 B(  6-C ,  7-C ) :   0.9452 B(  6-C , 15-H ) :   0.9629
B(  6-C , 16-H ) :   0.9405 B(  7-C , 17-H ) :   0.9682 B(  7-C , 18-H ) :   0.9713
B(  7-C , 19-H ) :   0.9611

Dispersion correction           -0.005108604
FINAL SINGLE POINT ENERGY      -386.239693898019

DIPOLE MOMENT
-------------

Method             : SCF
Type of density    : Electron Density
Multiplicity       :   1
Irrep              :   0
Energy             :  -386.2463578912632443 Eh
Relativity type    :
Basis              : AO
                                X                 Y                 Z
Electronic contribution:      1.518274254       4.012845649      -0.974408176
Nuclear contribution   :     -1.344934414      -5.239773332       0.643322852
                        -----------------------------------------
Total Dipole Moment    :      0.173339840      -1.226927682      -0.331085325
                        -----------------------------------------
Magnitude (a.u.)       :      1.282581666
Magnitude (Debye)      :      3.260063514

Rotational constants in cm-1:             0.119215             0.036631             0.033539
Rotational constants in MHz :          3573.984231          1098.179734          1005.483506

                             ****ORCA TERMINATED NORMALLY****
TOTAL RUN TIME: 0 days 0 hours 0 minutes 36 seconds 40 msec
