                         Program Version 6.0.0  -   RELEASE  -
|  1> ! r2scan-3c def2/J RI DEFGRID2 scfconv6 printgap
|  2> %output
|  3>     printlevel normal
|  4> end
|  5> * xyz 0 1
|  6> C 2.0133314001 -0.6361240246 -0.1784030997
|  7> C 1.1177967943 0.3173119495 0.6058715793
|  8> C 0.0006317382 0.932503548 -0.2404287234
|  9> C -1.0906032519 -0.0516487875 -0.6664131921
| 10> N -1.943076706 -0.4081755716 0.4622625926
| 11> H 2.4455763424 -0.1283285301 -1.0377847764
| 12> H 2.8232542326 -0.9957897469 0.4517990923
| 13> H 1.4559341644 -1.4983711454 -0.5359030292
| 14> H 0.6872645953 -0.204655701 1.4625510084
| 15> H 1.7323691108 1.1301291599 0.9987571625
| 16> H -0.4790538316 1.7296423912 0.3292120877
| 17> H 0.439658409 1.3719224754 -1.1382076651
| 18> H -0.6309835631 -0.9278447118 -1.1524657466
| 19> H -1.7306282189 0.4362105218 -1.4076374883
| 20> H -1.3950558656 -0.8942348257 1.1642652159
| 21> H -2.6697366975 -1.0440811342 0.1540150746
| 22> *
| 23>
| 24>                          ****END OF INPUT****

CARTESIAN COORDINATES (ANGSTROEM)
---------------------------------
  C      2.013331   -0.636124   -0.178403
  C      1.117797    0.317312    0.605872
  C      0.000632    0.932504   -0.240429
  C     -1.090603   -0.051649   -0.666413
  N     -1.943077   -0.408176    0.462263
  H      2.445576   -0.128329   -1.037785
  H      2.823254   -0.995790    0.451799
  H      1.455934   -1.498371   -0.535903
  H      0.687265   -0.204656    1.462551
  H      1.732369    1.130129    0.998757
  H     -0.479054    1.729642    0.329212
  H      0.439658    1.371922   -1.138208
  H     -0.630984   -0.927845   -1.152466
  H     -1.730628    0.436211   -1.407637
  H     -1.395056   -0.894235    1.164265
  H     -2.669737   -1.044081    0.154015

 Total Charge           Charge          ....    0
 Multiplicity           Mult            ....    1
 Number of Electrons    NEL             ....   42
 Basis Dimension        Dim             ....  155

ORBITAL ENERGIES
----------------

  NO   OCC          E(Eh)            E(eV)
   0   2.0000     -14.133595      -384.5947
   1   2.0000     -10.046806      -273.3875
   2   2.0000     -10.025207      -272.7997
   3   2.0000     -10.019396      -272.6416
   4   2.0000     -10.016240      -272.5557
   5   2.0000      -0.845266       -23.0009
   6   2.0000      -0.750740       -20.4287
   7   2.0000      -0.670997       -18.2588
   8   2.0000      -0.596968       -16.2443
   9   2.0000      -0.526821       -14.3355
  10   2.0000      -0.463058       -12.6005
  11   2.0000      -0.437828       -11.9139
  12   2.0000      -0.407009       -11.0753
  13   2.0000      -0.394636       -10.7386
  14   2.0000      -0.365419        -9.9436
  15   2.0000      -0.346616        -9.4319
  16   2.0000      -0.336282        -9.1507
  17   2.0000      -0.300243        -8.1700
  18   2.0000      -0.293806        -7.9949
  19   2.0000      -0.288786        -7.8583
  20   2.0000      -0.203808        -5.5459
  21   0.0000       0.067684         1.8418
  22   0.0000       0.108859         2.9622
  23   0.0000       0.114855         3.1254
  24   0.0000       0.122717         3.3393
  25   0.0000       0.132420         3.6033

MULLIKEN ATOMIC CHARGES
-----------------------
   0 C :   -0.488904
   1 C :   -0.231468
   2 C :   -0.235875
   3 C :   -0.216630
   4 N :   -0.563145
   5 H :    0.145263
   6 H :    0.145592
   7 H :    0.145267
   8 H :    0.122877
   9 H :    0.143993
  10 H :    0.155089
  11 H :    0.130722
  12 H :    0.127603
  13 H :    0.137834
  14 H :    0.240723
  15 H :    0.241059
Sum of atomic charges:    0.0000000

LOEWDIN ATOMIC CHARGES
----------------------
   0 C :   -0.427719
   1 C :   -0.317082
   2 C :   -0.290095
   3 C :   -0.075950
   4 N :   -0.747792
   5 H :    0.150570
   6 H :    0.150415
   7 H :    0.147428
   8 H :    0.147354
   9 H :    0.153737
  10 H :    0.165186
  11 H :    0.155653
  12 H :    0.147206
  13 H :    0.171406
  14 H :    0.233905
  15 H :    0.235778

  Mayer bond orders larger than 0.100000
B(  0-C ,  1-C ) :   0.9030 B(  0-C ,  5-H ) :   0.9818 B(  0-C ,  6-H ) :   0.9693
B(  0-C ,  7-H ) :   0.9820 B(  1-C ,  2-C ) :   0.9118 B(  1-C ,  8-H ) :   0.9807
B(  1-C ,  9-H ) :   0.9648 B(  2-C ,  3-C ) :   0.9406 B(  2-C , 10-H ) :   0.9636
B(  2-C , 11-H ) :   0.9713 B(  3-C ,  4-N ) :   0.9239 B(  3-C , 12-H ) :   0.9862
B(  3-C , 13-H ) :   0.9690 B(  4-N , 14-H ) :   0.9237 B(  4-N , 15-H ) :   0.9189

Dispersion correction           -0.003537659
FINAL SINGLE POINT ENERGY      -213.721820158862

DIPOLE MOMENT
-------------

Method             : SCF
Type of density    : Electron Density
Multiplicity       :   1
Irrep              :   0
Energy             :  -213.7289129453044154 Eh
Relativity type    :
Basis              : AO
                                X                 Y                 Z
Electronic contribution:     -2.311169496       0.591954970       0.510454495
Nuclear contribution   :      2.502342737      -0.964223185      -0.664881840
                        -----------------------------------------
Total Dipole Moment    :      0.191173241      -0.372268215      -0.154427344
                        -----------------------------------------
Magnitude (a.u.)       :      0.446070215
Magnitude (Debye)      :      1.133820381

Rotational constants in cm-1:             0.300769             0.089735             0.086302
Rotational constants in MHz :          9016.838889          2690.200883          2587.260789

                             ****ORCA TERMINATED NORMALLY****
TOTAL RUN TIME: 0 days 0 hours 0 minutes 17 seconds 734 msec
