                         Program Version 6.0.0  -   RELEASE  -
|  1> ! r2scan-3c def2/J RI DEFGRID2 scfconv6 printgap
|  2> %output
|  3>     printlevel normal
|  4> end
|  5> %cpcm
|  6>     smd true
|  7>     smdsolvent "water"
|  8> end
|  9> * xyz 0 1
| 10> C 2.0133314001 -0.6361240246 -0.1784030997
| 11> C 1.1177967943 0.3173119495 0.6058715793
| 12> C 0.0006317382 0.932503548 -0.2404287234
| 13> C -1.0906032519 -0.0516487875 -0.6664131921
| 14> N -1.943076706 -0.4081755716 0.4622625926
| 15> H 2.4455763424 -0.1283285301 -1.0377847764
| 16> H 2.8232542326 -0.9957897469 0.4517990923
| 17> H 1.4559341644 -1.4983711454 -0.5359030292
| 18> H 0.6872645953 -0.204655701 1.4625510084
| 19> H 1.7323691108 1.1301291599 0.9987571625
| 20> H -0.4790538316 1.7296423912 0.3292120877
| 21> H 0.439658409 1.3719224754 -1.1382076651
| 22> H -0.6309835631 -0.9278447118 -1.1524657466
| 23> H -1.7306282189 0.4362105218 -1.4076374883
| 24> H -1.3950558656 -0.8942348257 1.1642652159
| 25> H -2.6697366975 -1.0440811342 0.1540150746
| 26> *
| 27>
| 28>                          ****END OF INPUT****

CARTESIAN COORDINATES (ANGSTROEM)
---------------------------------
  C      2.013331   -0.636124   -0.178403
  C      1.117797    0.317312    0.605872
  C      0.000632    0.932504   -0.240429
  C     -1.090603   -0.051649   -0.666413
  N     -1.943077   -0.408176    0.462263
  H      2.445576   -0.128329   -1.037785
  H      2.823254   -0.995790    0.451799
  H      1.455934   -1.498371   -0.535903
  H      0.687265   -0.204656    1.462551
  H      1.732369    1.130129    0.998757
  H     -0.479054    1.729642    0.329212
  H      0.439658    1.371922   -1.138208
  H     -0.630984   -0.927845   -1.152466
  H     -1.730628    0.436211   -1.407637
  H     -1.395056   -0.894235    1.164265
  H     -2.669737   -1.044081    0.154015

 Total Charge           Charge          ....    0
 Multiplicity           Mult            ....    1
 Number of Electrons    NEL             ....   42
 Basis Dimension        Dim             ....  155

ORBITAL ENERGIES
----------------

  NO   OCC          E(Eh)            E(eV)
   0   2.0000     -14.127381      -384.4256
   1   2.0000     -10.040251      -273.2091
   2   2.0000     -10.016360      -272.5590
   3   2.0000     -10.013530      -272.4820
   4   2.0000     -10.006803      -272.2990
   5   2.0000      -0.839318       -22.8390
   6   2.0000      -0.742989       -20.2178
   7   2.0000      -0.663933       -18.0665
   8   2.0000      -0.589480       -16.0406
   9   2.0000      -0.519684       -14.1413
  10   2.0000      -0.455326       -12.3901
  11   2.0000      -0.431961       -11.7543
  12   2.0000      -0.398187       -10.8352
  13   2.0000      -0.387128       -10.5343
  14   2.0000      -0.358692        -9.7605
  15   2.0000      -0.338837        -9.2202
  16   2.0000      -0.328354        -8.9350
  17   2.0000      -0.292660        -7.9637
  18   2.0000      -0.286596        -7.7987
  19   2.0000      -0.281057        -7.6480
  20   2.0000      -0.204284        -5.5588
  21   0.0000       0.079881         2.1737
  22   0.0000       0.117004         3.1838
  23   0.0000       0.125575         3.4171
  24   0.0000       0.129630         3.5274
  25   0.0000       0.138619         3.7720

MULLIKEN ATOMIC CHARGES
-----------------------
   0 C :   -0.528732
   1 C :   -0.235892
   2 C :   -0.258599
   3 C :   -0.238126
   4 N :   -0.654017
   5 H :    0.155504
   6 H :    0.154896
   7 H :    0.158431
   8 H :    0.140303
   9 H :    0.150569
  10 H :    0.150174
  11 H :    0.145206
  12 H :    0.139776
  13 H :    0.150905
  14 H :    0.286695
  15 H :    0.282906
Sum of atomic charges:   -0.0000000

LOEWDIN ATOMIC CHARGES
----------------------
   0 C :   -0.435156
   1 C :   -0.319681
   2 C :   -0.295442
   3 C :   -0.079088
   4 N :   -0.770548
   5 H :    0.152601
   6 H :    0.152611
   7 H :    0.151118
   8 H :    0.153026
   9 H :    0.154763
  10 H :    0.160917
  11 H :    0.159576
  12 H :    0.153109
  13 H :    0.173386
  14 H :    0.243683
  15 H :    0.245125

  Mayer bond orders larger than 0.100000
B(  0-C ,  1-C ) :   0.8954 B(  0-C ,  5-H ) :   0.9798 B(  0-C ,  6-H ) :   0.9671
B(  0-C ,  7-H ) :   0.9793 B(  1-C ,  2-C ) :   0.9077 B(  1-C ,  8-H ) :   0.9777
B(  1-C ,  9-H ) :   0.9654 B(  2-C ,  3-C ) :   0.9286 B(  2-C , 10-H ) :   0.9674
B(  2-C , 11-H ) :   0.9711 B(  3-C ,  4-N ) :   0.9349 B(  3-C , 12-H ) :   0.9884
B(  3-C , 13-H ) :   0.9705 B(  4-N , 14-H ) :   0.9065 B(  4-N , 15-H ) :   0.9023

Dispersion correction           -0.003537659
FINAL SINGLE POINT ENERGY      -213.727182916444

DIPOLE MOMENT
-------------

Method             : SCF
Type of density    : Electron Density
Multiplicity       :   1
Irrep              :   0
Energy             :  -213.7342757028855544 Eh
Relativity type    :
Basis              : AO
                                X                 Y                 Z
Electronic contribution:     -2.235534778       0.406731742       0.446718243
Nuclear contribution   :      2.502342737      -0.964223185      -0.664881840
                        -----------------------------------------
Total Dipole Moment    :      0.266807959      -0.557491443      -0.218163597
                        -----------------------------------------
Magnitude (a.u.)       :      0.655422421
Magnitude (Debye)      :      1.665951400

Rotational constants in cm-1:             0.300769             0.089735             0.086302
Rotational constants in MHz :          9016.838889          2690.200883          2587.260789

                             ****ORCA TERMINATED NORMALLY****
TOTAL RUN TIME: 0 days 0 hours 0 minutes 21 seconds 715 msec
