                         Program Version 6.0.0  -   RELEASE  -
|  1> ! r2scan-3c def2/J RI DEFGRID2 scfconv6 printgap
|  2> %output
|  3>     printlevel normal
|  4> end
|  5> * xyz 0 1
|  6> C -2.2857065606 -1.4708024063 -0.2052387979
|  7> C -2.474796187 0.0367334296 -0.0867109898
|  8> C -1.34905254 0.6829315675 0.7233910803
|  9> C -0.0337283587 0.6220649074 -0.0109344529
| 10> O 0.1136264501 0.8386857591 -1.1954213902
| 11> O 0.9656963968 0.3248011661 0.8120449683
| 12> C 2.2961925724 0.2380732601 0.2749079616
| 13> C 2.5863995956 -1.1634503679 -0.2400058367
| 14> H -1.3554222136 -1.6954279404 -0.7234782746
| 15> H -2.2523865437 -1.9311680038 0.7793186122
| 16> H -3.1043576835 -1.9125375542 -0.766897272
| 17> H -3.4275085413 0.2499633856 0.3985265026
| 18> H -2.487277535 0.4827802147 -1.0829120902
| 19> H -1.2276392134 0.1997567647 1.6923212291
| 20> H -1.5735101939 1.7395635375 0.8840365282
| 21> H 2.3965731324 0.973125245 -0.5295370863
| 22> H 2.9483161642 0.4971335306 1.1095476992
| 23> H 2.4244354928 -1.8926589132 0.5490307536
| 24> H 1.9318206076 -1.3956614115 -1.0772131683
| 25> H 3.617270435 -1.2183299618 -0.5740712936
| 26> *
| 27>
| 28>                          ****END OF INPUT****

CARTESIAN COORDINATES (ANGSTROEM)
---------------------------------
  C     -2.285707   -1.470802   -0.205239
  C     -2.474796    0.036733   -0.086711
  C     -1.349053    0.682932    0.723391
  C     -0.033728    0.622065   -0.010934
  O      0.113626    0.838686   -1.195421
  O      0.965696    0.324801    0.812045
  C      2.296193    0.238073    0.274908
  C      2.586400   -1.163450   -0.240006
  H     -1.355422   -1.695428   -0.723478
  H     -2.252387   -1.931168    0.779319
  H     -3.104358   -1.912538   -0.766897
  H     -3.427509    0.249963    0.398527
  H     -2.487278    0.482780   -1.082912
  H     -1.227639    0.199757    1.692321
  H     -1.573510    1.739564    0.884037
  H      2.396573    0.973125   -0.529537
  H      2.948316    0.497134    1.109548
  H      2.424435   -1.892659    0.549031
  H      1.931821   -1.395661   -1.077213
  H      3.617270   -1.218330   -0.574071

 Total Charge           Charge          ....    0
 Multiplicity           Mult            ....    1
 Number of Electrons    NEL             ....   64
 Basis Dimension        Dim             ....  222

ORBITAL ENERGIES
----------------

  NO   OCC          E(Eh)            E(eV)
   0   2.0000     -18.996334      -516.9165
   1   2.0000     -18.928131      -515.0606
   2   2.0000     -10.151797      -276.2444
   3   2.0000     -10.090620      -274.5797
   4   2.0000     -10.040573      -273.2179
   5   2.0000     -10.031663      -272.9754
   6   2.0000     -10.028948      -272.9015
   7   2.0000     -10.018060      -272.6053
   8   2.0000      -1.070839       -29.1390
   9   2.0000      -0.975760       -26.5518
  10   2.0000      -0.771877       -21.0038
  11   2.0000      -0.739498       -20.1228
  12   2.0000      -0.677399       -18.4330
  13   2.0000      -0.624361       -16.9897
  14   2.0000      -0.565006       -15.3746
  15   2.0000      -0.517930       -14.0936
  16   2.0000      -0.473715       -12.8904
  17   2.0000      -0.453748       -12.3471
  18   2.0000      -0.445797       -12.1308
  19   2.0000      -0.418836       -11.3971
  20   2.0000      -0.408573       -11.1178
  21   2.0000      -0.389418       -10.5966
  22   2.0000      -0.374174       -10.1818
  23   2.0000      -0.369577       -10.0567
  24   2.0000      -0.350069        -9.5259
  25   2.0000      -0.343062        -9.3352
  26   2.0000      -0.316438        -8.6107
  27   2.0000      -0.309713        -8.4277
  28   2.0000      -0.307519        -8.3680
  29   2.0000      -0.302742        -8.2380
  30   2.0000      -0.271399        -7.3852
  31   2.0000      -0.236796        -6.4436
  32   0.0000      -0.014939        -0.4065
  33   0.0000       0.074295         2.0217
  34   0.0000       0.088945         2.4203
  35   0.0000       0.110005         2.9934
  36   0.0000       0.120507         3.2792

MULLIKEN ATOMIC CHARGES
-----------------------
   0 C :   -0.496557
   1 C :   -0.205340
   2 C :   -0.302882
   3 C :    0.346579
   4 O :   -0.430312
   5 O :   -0.172889
   6 C :   -0.141129
   7 C :   -0.466061
   8 H :    0.156120
   9 H :    0.143976
  10 H :    0.148006
  11 H :    0.142118
  12 H :    0.159103
  13 H :    0.166092
  14 H :    0.167836
  15 H :    0.168762
  16 H :    0.147608
  17 H :    0.152162
  18 H :    0.169640
  19 H :    0.147169
Sum of atomic charges:   -0.0000000

LOEWDIN ATOMIC CHARGES
----------------------
   0 C :   -0.417023
   1 C :   -0.296291
   2 C :   -0.232231
   3 C :    0.357603
   4 O :   -0.440467
   5 O :   -0.595572
   6 C :    0.026748
   7 C :   -0.390513
   8 H :    0.156202
   9 H :    0.149554
  10 H :    0.152861
  11 H :    0.152509
  12 H :    0.168927
  13 H :    0.178123
  14 H :    0.183126
  15 H :    0.188446
  16 H :    0.177487
  17 H :    0.157276
  18 H :    0.164176
  19 H :    0.159058

  Mayer bond orders larger than 0.100000
B(  0-C ,  1-C ) :   0.9091 B(  0-C ,  8-H ) :   0.9746 B(  0-C ,  9-H ) :   0.9824
B(  0-C , 10-H ) :   0.9689 B(  1-C ,  2-C ) :   0.8954 B(  1-C , 11-H ) :   0.9643
B(  1-C , 12-H ) :   0.9630 B(  2-C ,  3-C ) :   0.9483 B(  2-C , 13-H ) :   1.0011
B(  2-C , 14-H ) :   0.9273 B(  3-C ,  4-O ) :   1.8367 B(  3-C ,  5-O ) :   1.0576
B(  5-O ,  6-C ) :   0.8214 B(  6-C ,  7-C ) :   0.9372 B(  6-C , 15-H ) :   0.9677
B(  6-C , 16-H ) :   0.9614 B(  7-C , 17-H ) :   0.9732 B(  7-C , 18-H ) :   0.9719
B(  7-C , 19-H ) :   0.9655

Dispersion correction           -0.005177283
FINAL SINGLE POINT ENERGY      -386.236954026310

DIPOLE MOMENT
-------------

Method             : SCF
Type of density    : Electron Density
Multiplicity       :   1
Irrep              :   0
Energy             :  -386.2435286544385349 Eh
Relativity type    :
Basis              : AO
                                X                 Y                 Z
Electronic contribution:      2.152195299       5.278516817       0.025602032
Nuclear contribution   :     -1.963232857      -5.521178240       0.612259498
                        -----------------------------------------
Total Dipole Moment    :      0.188962442      -0.242661423       0.637861529
                        -----------------------------------------
Magnitude (a.u.)       :      0.708137487
Magnitude (Debye)      :      1.799942449

Rotational constants in cm-1:             0.120458             0.037933             0.034956
Rotational constants in MHz :          3611.251859          1137.213621          1047.960697

                             ****ORCA TERMINATED NORMALLY****
TOTAL RUN TIME: 0 days 0 hours 0 minutes 33 seconds 384 msec
