                         Program Version 6.0.0  -   RELEASE  -
|  1> ! r2scan-3c def2/J RI DEFGRID2 scfconv6 printgap
|  2> %output
|  3>     printlevel normal
|  4> end
|  5> %cpcm
|  6>     smd true
|  7>     smdsolvent "water"
|  8> end
|  9> * xyz 0 1
| 10> C -2.2857065606 -1.4708024063 -0.2052387979
| 11> C -2.474796187 0.0367334296 -0.0867109898
| 12> C -1.34905254 0.6829315675 0.7233910803
| 13> C -0.0337283587 0.6220649074 -0.0109344529
| 14> O 0.1136264501 0.8386857591 -1.1954213902
| 15> O 0.9656963968 0.3248011661 0.8120449683
| 16> C 2.2961925724 0.2380732601 0.2749079616
| 17> C 2.5863995956 -1.1634503679 -0.2400058367
| 18> H -1.3554222136 -1.6954279404 -0.7234782746
| 19> H -2.2523865437 -1.9311680038 0.7793186122
| 20> H -3.1043576835 -1.9125375542 -0.766897272
| 21> H -3.4275085413 0.2499633856 0.3985265026
| 22> H -2.487277535 0.4827802147 -1.0829120902
| 23> H -1.2276392134 0.1997567647 1.6923212291
| 24> H -1.5735101939 1.7395635375 0.8840365282
| 25> H 2.3965731324 0.973125245 -0.5295370863
| 26> H 2.9483161642 0.4971335306 1.1095476992
| 27> H 2.4244354928 -1.8926589132 0.5490307536
| 28> H 1.9318206076 -1.3956614115 -1.0772131683
| 29> H 3.617270435 -1.2183299618 -0.5740712936
| 30> *
| 31>
| 32>                          ****END OF INPUT****

CARTESIAN COORDINATES (ANGSTROEM)
---------------------------------
  C     -2.285707   -1.470802   -0.205239
  C     -2.474796    0.036733   -0.086711
  C     -1.349053    0.682932    0.723391
  C     -0.033728    0.622065   -0.010934
  O      0.113626    0.838686   -1.195421
  O      0.965696    0.324801    0.812045
  C      2.296193    0.238073    0.274908
  C      2.586400   -1.163450   -0.240006
  H     -1.355422   -1.695428   -0.723478
  H     -2.252387   -1.931168    0.779319
  H     -3.104358   -1.912538   -0.766897
  H     -3.427509    0.249963    0.398527
  H     -2.487278    0.482780   -1.082912
  H     -1.227639    0.199757    1.692321
  H     -1.573510    1.739564    0.884037
  H      2.396573    0.973125   -0.529537
  H      2.948316    0.497134    1.109548
  H      2.424435   -1.892659    0.549031
  H      1.931821   -1.395661   -1.077213
  H      3.617270   -1.218330   -0.574071

 Total Charge           Charge          ....    0
 Multiplicity           Mult            ....    1
 Number of Electrons    NEL             ....   64
 Basis Dimension        Dim             ....  222

ORBITAL ENERGIES
----------------

  NO   OCC          E(Eh)            E(eV)
   0   2.0000     -19.002205      -517.0763
   1   2.0000     -18.943451      -515.4775
   2   2.0000     -10.162257      -276.5291
   3   2.0000     -10.082914      -274.3701
   4   2.0000     -10.035053      -273.0677
   5   2.0000     -10.026404      -272.8323
   6   2.0000     -10.018308      -272.6120
   7   2.0000     -10.010919      -272.4109
   8   2.0000      -1.078279       -29.3415
   9   2.0000      -0.988995       -26.9119
  10   2.0000      -0.768102       -20.9011
  11   2.0000      -0.733125       -19.9494
  12   2.0000      -0.672194       -18.2913
  13   2.0000      -0.619329       -16.8528
  14   2.0000      -0.559350       -15.2207
  15   2.0000      -0.516858       -14.0644
  16   2.0000      -0.474584       -12.9141
  17   2.0000      -0.457111       -12.4386
  18   2.0000      -0.448720       -12.2103
  19   2.0000      -0.421543       -11.4708
  20   2.0000      -0.403202       -10.9717
  21   2.0000      -0.385000       -10.4764
  22   2.0000      -0.367934       -10.0120
  23   2.0000      -0.365793        -9.9537
  24   2.0000      -0.347270        -9.4497
  25   2.0000      -0.340506        -9.2656
  26   2.0000      -0.310433        -8.4473
  27   2.0000      -0.305184        -8.3045
  28   2.0000      -0.302414        -8.2291
  29   2.0000      -0.300460        -8.1759
  30   2.0000      -0.278600        -7.5811
  31   2.0000      -0.252429        -6.8689
  32   0.0000      -0.022679        -0.6171
  33   0.0000       0.076555         2.0832
  34   0.0000       0.095473         2.5980
  35   0.0000       0.119929         3.2634
  36   0.0000       0.128430         3.4948

MULLIKEN ATOMIC CHARGES
-----------------------
   0 C :   -0.527954
   1 C :   -0.219684
   2 C :   -0.315589
   3 C :    0.386206
   4 O :   -0.511972
   5 O :   -0.194670
   6 C :   -0.146709
   7 C :   -0.491438
   8 H :    0.160001
   9 H :    0.160224
  10 H :    0.160466
  11 H :    0.161211
  12 H :    0.151105
  13 H :    0.181466
  14 H :    0.198804
  15 H :    0.171818
  16 H :    0.173347
  17 H :    0.165676
  18 H :    0.167336
  19 H :    0.170354
Sum of atomic charges:    0.0000000

LOEWDIN ATOMIC CHARGES
----------------------
   0 C :   -0.423872
   1 C :   -0.296125
   2 C :   -0.229185
   3 C :    0.367666
   4 O :   -0.498505
   5 O :   -0.599130
   6 C :    0.031410
   7 C :   -0.393374
   8 H :    0.155985
   9 H :    0.155315
  10 H :    0.155813
  11 H :    0.159988
  12 H :    0.164051
  13 H :    0.185781
  14 H :    0.194315
  15 H :    0.189464
  16 H :    0.188727
  17 H :    0.161997
  18 H :    0.162054
  19 H :    0.167626

  Mayer bond orders larger than 0.100000
B(  0-C ,  1-C ) :   0.9072 B(  0-C ,  8-H ) :   0.9721 B(  0-C ,  9-H ) :   0.9781
B(  0-C , 10-H ) :   0.9665 B(  1-C ,  2-C ) :   0.8803 B(  1-C , 11-H ) :   0.9601
B(  1-C , 12-H ) :   0.9689 B(  2-C ,  3-C ) :   0.9520 B(  2-C , 13-H ) :   0.9902
B(  2-C , 14-H ) :   0.9192 B(  3-C ,  4-O ) :   1.7710 B(  3-C ,  5-O ) :   1.0795
B(  5-O ,  6-C ) :   0.8037 B(  6-C ,  7-C ) :   0.9363 B(  6-C , 15-H ) :   0.9638
B(  6-C , 16-H ) :   0.9522 B(  7-C , 17-H ) :   0.9695 B(  7-C , 18-H ) :   0.9690
B(  7-C , 19-H ) :   0.9605

Dispersion correction           -0.005177283
FINAL SINGLE POINT ENERGY      -386.241718988258

DIPOLE MOMENT
-------------

Method             : SCF
Type of density    : Electron Density
Multiplicity       :   1
Irrep              :   0
Energy             :  -386.2482936163866611 Eh
Relativity type    :
Basis              : AO
                                X                 Y                 Z
Electronic contribution:      2.203385205       5.208006892       0.384428292
Nuclear contribution   :     -1.963232857      -5.521178240       0.612259498
                        -----------------------------------------
Total Dipole Moment    :      0.240152348      -0.313171349       0.996687790
                        -----------------------------------------
Magnitude (a.u.)       :      1.071977609
Magnitude (Debye)      :      2.724750543

Rotational constants in cm-1:             0.120458             0.037933             0.034956
Rotational constants in MHz :          3611.251859          1137.213621          1047.960697

                             ****ORCA TERMINATED NORMALLY****
TOTAL RUN TIME: 0 days 0 hours 0 minutes 39 seconds 564 msec
