                         Program Version 6.0.0  -   RELEASE  -
|  1> ! r2scan-3c def2/J RI DEFGRID2 scfconv6 printgap
|  2> %output
|  3>     printlevel normal
|  4> end
|  5> * xyz 0 1
|  6> C -3.1309173885 -1.119268924 0.0081568526
|  7> C -1.9446873985 -0.2830241507 0.4731126469
|  8> C -1.3592259485 0.5451782977 -0.668838469
|  9> C -0.1658992418 1.3924642739 -0.2110356788
| 10> C 0.978508502 0.5221172762 0.2372409939
| 11> O 1.4420815334 0.4995602 1.3588637021
| 12> O 1.4393613202 -0.2363621556 -0.7509670793
| 13> C 2.521505366 -1.1213262764 -0.4556796195
| 14> H -3.5354505813 -1.698890444 0.8337708061
| 15> H -3.9175406382 -0.4771088597 -0.3803918952
| 16> H -2.8275117743 -1.8057574026 -0.7787007692
| 17> H -2.2609526459 0.3842719552 1.2777586577
| 18> H -1.1709633631 -0.9389337257 0.881118241
| 19> H -2.1287529717 1.2106735363 -1.0622345406
| 20> H -1.0363577296 -0.1171077392 -1.4737078906
| 21> H -0.4480639672 2.0374504395 0.6209897814
| 22> H 0.1838492811 2.0030109258 -1.0440967864
| 23> H 2.2223484349 -1.8345073654 0.3135115433
| 24> H 3.3803842167 -0.5534991116 -0.0958336884
| 25> H 2.7497909791 -1.6266022053 -1.3887153226
| 26> *
| 27>
| 28>                          ****END OF INPUT****

CARTESIAN COORDINATES (ANGSTROEM)
---------------------------------
  C     -3.130917   -1.119269    0.008157
  C     -1.944687   -0.283024    0.473113
  C     -1.359226    0.545178   -0.668838
  C     -0.165899    1.392464   -0.211036
  C      0.978509    0.522117    0.237241
  O      1.442082    0.499560    1.358864
  O      1.439361   -0.236362   -0.750967
  C      2.521505   -1.121326   -0.455680
  H     -3.535451   -1.698890    0.833771
  H     -3.917541   -0.477109   -0.380392
  H     -2.827512   -1.805757   -0.778701
  H     -2.260953    0.384272    1.277759
  H     -1.170963   -0.938934    0.881118
  H     -2.128753    1.210674   -1.062235
  H     -1.036358   -0.117108   -1.473708
  H     -0.448064    2.037450    0.620990
  H      0.183849    2.003011   -1.044097
  H      2.222348   -1.834507    0.313512
  H      3.380384   -0.553499   -0.095834
  H      2.749791   -1.626602   -1.388715

 Total Charge           Charge          ....    0
 Multiplicity           Mult            ....    1
 Number of Electrons    NEL             ....   64
 Basis Dimension        Dim             ....  222

ORBITAL ENERGIES
----------------

  NO   OCC          E(Eh)            E(eV)
   0   2.0000     -18.999693      -517.0079
   1   2.0000     -18.928390      -515.0677
   2   2.0000     -10.151623      -276.2397
   3   2.0000     -10.087696      -274.5002
   4   2.0000     -10.041981      -273.2562
   5   2.0000     -10.035193      -273.0715
   6   2.0000     -10.027947      -272.8743
   7   2.0000     -10.018560      -272.6189
   8   2.0000      -1.073906       -29.2225
   9   2.0000      -0.975134       -26.5347
  10   2.0000      -0.780456       -21.2373
  11   2.0000      -0.727076       -19.7847
  12   2.0000      -0.685334       -18.6489
  13   2.0000      -0.617528       -16.8038
  14   2.0000      -0.557799       -15.1785
  15   2.0000      -0.533614       -14.5204
  16   2.0000      -0.471834       -12.8393
  17   2.0000      -0.455430       -12.3929
  18   2.0000      -0.441281       -12.0079
  19   2.0000      -0.430268       -11.7082
  20   2.0000      -0.407955       -11.1010
  21   2.0000      -0.398285       -10.8379
  22   2.0000      -0.383659       -10.4399
  23   2.0000      -0.361852        -9.8465
  24   2.0000      -0.350105        -9.5269
  25   2.0000      -0.335827        -9.1383
  26   2.0000      -0.323631        -8.8064
  27   2.0000      -0.310638        -8.4529
  28   2.0000      -0.301612        -8.2073
  29   2.0000      -0.297395        -8.0925
  30   2.0000      -0.274184        -7.4609
  31   2.0000      -0.232961        -6.3392
  32   0.0000      -0.015850        -0.4313
  33   0.0000       0.061604         1.6763
  34   0.0000       0.093903         2.5552
  35   0.0000       0.102707         2.7948
  36   0.0000       0.115779         3.1505

MULLIKEN ATOMIC CHARGES
-----------------------
   0 C :   -0.470459
   1 C :   -0.240926
   2 C :   -0.275746
   3 C :   -0.305459
   4 C :    0.350834
   5 O :   -0.414519
   6 O :   -0.179953
   7 C :   -0.290030
   8 H :    0.149063
   9 H :    0.140385
  10 H :    0.142858
  11 H :    0.143433
  12 H :    0.147194
  13 H :    0.146460
  14 H :    0.156574
  15 H :    0.166152
  16 H :    0.161089
  17 H :    0.160409
  18 H :    0.162621
  19 H :    0.150020
Sum of atomic charges:    0.0000000

LOEWDIN ATOMIC CHARGES
----------------------
   0 C :   -0.422443
   1 C :   -0.307231
   2 C :   -0.287350
   3 C :   -0.228206
   4 C :    0.345288
   5 O :   -0.421373
   6 O :   -0.608051
   7 C :   -0.044274
   8 H :    0.151636
   9 H :    0.150108
  10 H :    0.150205
  11 H :    0.154256
  12 H :    0.157713
  13 H :    0.156157
  14 H :    0.166253
  15 H :    0.178249
  16 H :    0.179695
  17 H :    0.176105
  18 H :    0.177366
  19 H :    0.175897

  Mayer bond orders larger than 0.100000
B(  0-C ,  1-C ) :   0.9001 B(  0-C ,  8-H ) :   0.9743 B(  0-C ,  9-H ) :   0.9801
B(  0-C , 10-H ) :   0.9855 B(  1-C ,  2-C ) :   0.9323 B(  1-C , 11-H ) :   0.9639
B(  1-C , 12-H ) :   0.9605 B(  2-C ,  3-C ) :   0.8895 B(  2-C , 13-H ) :   0.9658
B(  2-C , 14-H ) :   0.9812 B(  3-C ,  4-C ) :   0.9584 B(  3-C , 15-H ) :   0.9993
B(  3-C , 16-H ) :   0.9514 B(  4-C ,  5-O ) :   1.8305 B(  4-C ,  6-O ) :   1.0396
B(  6-O ,  7-C ) :   0.8527 B(  7-C , 17-H ) :   0.9620 B(  7-C , 18-H ) :   0.9635
B(  7-C , 19-H ) :   0.9692

Dispersion correction           -0.005180534
FINAL SINGLE POINT ENERGY      -386.231047137963

DIPOLE MOMENT
-------------

Method             : SCF
Type of density    : Electron Density
Multiplicity       :   1
Irrep              :   0
Energy             :  -386.2377727929026037 Eh
Relativity type    :
Basis              : AO
                                X                 Y                 Z
Electronic contribution:      8.025515300       2.956262660       1.382059868
Nuclear contribution   :     -8.203027710      -3.201812863      -2.145515724
                        -----------------------------------------
Total Dipole Moment    :     -0.177512409      -0.245550203      -0.763455857
                        -----------------------------------------
Magnitude (a.u.)       :      0.821383225
Magnitude (Debye)      :      2.087790240

Rotational constants in cm-1:             0.112336             0.035837             0.033293
Rotational constants in MHz :          3367.746098          1074.358093           998.103914

                             ****ORCA TERMINATED NORMALLY****
TOTAL RUN TIME: 0 days 0 hours 0 minutes 29 seconds 20 msec
