                         Program Version 6.0.0  -   RELEASE  -
|  1> ! pbe def2-sv(p) def2/J RI DEFGRID1 loosescf d4 GCP(DFT/SV(P)) printgap
|  2> %output
|  3>     printlevel normal
|  4> end
|  5> * xyz 0 1
|  6> C -2.7275353207 0.1474654561 -0.0517686611
|  7> C -1.2993208629 0.2054738841 0.4733305012
|  8> C -0.3032002892 -0.1482760942 -0.6421989263
|  9> N 1.0402357499 -0.0859715285 -0.0895301559
| 10> O 1.6172768995 0.9826217135 -0.1096255666
| 11> O 1.5016039516 -1.0941582046 0.4064155138
| 12> H -2.9642094742 -0.8505340781 -0.4099069064
| 13> H -3.4214627401 0.4012627729 0.744048768
| 14> H -2.8654449757 0.852168486 -0.8670000843
| 15> H -1.1771526877 -0.5001279159 1.2971803508
| 16> H -1.0787363405 1.2085210613 0.8430384531
| 17> H -0.4824437532 -1.1644265366 -0.99429498
| 18> H -0.3757077271 0.5794954959 -1.4508394953
| 19> *
| 20>
| 21>                          ****END OF INPUT****

CARTESIAN COORDINATES (ANGSTROEM)
---------------------------------
  C     -2.727535    0.147465   -0.051769
  C     -1.299321    0.205474    0.473331
  C     -0.303200   -0.148276   -0.642199
  N      1.040236   -0.085972   -0.089530
  O      1.617277    0.982622   -0.109626
  O      1.501604   -1.094158    0.406416
  H     -2.964209   -0.850534   -0.409907
  H     -3.421463    0.401263    0.744049
  H     -2.865445    0.852168   -0.867000
  H     -1.177153   -0.500128    1.297180
  H     -1.078736    1.208521    0.843038
  H     -0.482444   -1.164427   -0.994295
  H     -0.375708    0.579495   -1.450839

 Total Charge           Charge          ....    0
 Multiplicity           Mult            ....    1
 Number of Electrons    NEL             ....   48
 Basis Dimension        Dim             ....   98

ORBITAL ENERGIES
----------------

  NO   OCC          E(Eh)            E(eV)
   0   2.0000     -18.773334      -510.8484
   1   2.0000     -18.773277      -510.8468
   2   2.0000     -14.205920      -386.5627
   3   2.0000      -9.947165      -270.6761
   4   2.0000      -9.918625      -269.8995
   5   2.0000      -9.898978      -269.3649
   6   2.0000      -1.130586       -30.7648
   7   2.0000      -0.958921       -26.0936
   8   2.0000      -0.770951       -20.9786
   9   2.0000      -0.689688       -18.7674
  10   2.0000      -0.576267       -15.6810
  11   2.0000      -0.535993       -14.5851
  12   2.0000      -0.484949       -13.1961
  13   2.0000      -0.472982       -12.8705
  14   2.0000      -0.464336       -12.6352
  15   2.0000      -0.431948       -11.7539
  16   2.0000      -0.391857       -10.6630
  17   2.0000      -0.377080       -10.2609
  18   2.0000      -0.351627        -9.5683
  19   2.0000      -0.328854        -8.9486
  20   2.0000      -0.322270        -8.7694
  21   2.0000      -0.268664        -7.3107
  22   2.0000      -0.250278        -6.8104
  23   2.0000      -0.228549        -6.2191
  24   0.0000      -0.092683        -2.5220
  25   0.0000       0.026068         0.7093
  26   0.0000       0.059100         1.6082
  27   0.0000       0.059239         1.6120
  28   0.0000       0.079988         2.1766

MULLIKEN ATOMIC CHARGES
-----------------------
   0 C :   -0.276496
   1 C :   -0.221597
   2 C :   -0.035038
   3 N :    0.181181
   4 O :   -0.223330
   5 O :   -0.223193
   6 H :    0.110632
   7 H :    0.120685
   8 H :    0.110593
   9 H :    0.114960
  10 H :    0.115272
  11 H :    0.112874
  12 H :    0.113458
Sum of atomic charges:   -0.0000000

LOEWDIN ATOMIC CHARGES
----------------------
   0 C :   -0.338005
   1 C :   -0.233373
   2 C :   -0.181813
   3 N :    0.239111
   4 O :   -0.192280
   5 O :   -0.192057
   6 H :    0.122624
   7 H :    0.129749
   8 H :    0.122602
   9 H :    0.128026
  10 H :    0.128108
  11 H :    0.133513
  12 H :    0.133795

  Mayer bond orders larger than 0.100000
B(  0-C ,  1-C ) :   1.1576 B(  0-C ,  6-H ) :   0.9534 B(  0-C ,  7-H ) :   0.9486
B(  0-C ,  8-H ) :   0.9534 B(  1-C ,  2-C ) :   1.1295 B(  1-C ,  9-H ) :   0.9192
B(  1-C , 10-H ) :   0.9189 B(  2-C ,  3-N ) :   0.9097 B(  2-C , 11-H ) :   0.9093
B(  2-C , 12-H ) :   0.9090 B(  3-N ,  4-O ) :   1.5414 B(  3-N ,  5-O ) :   1.5424
B(  4-O ,  5-O ) :   0.3138

Dispersion correction           -0.008403543
FINAL SINGLE POINT ENERGY      -322.968781877172

DIPOLE MOMENT
-------------

Method             : SCF
Type of density    : Electron Density
Multiplicity       :   1
Irrep              :   0
Energy             :  -323.0193402049445695 Eh
Relativity type    :
Basis              : AO
                                X                 Y                 Z
Electronic contribution:     10.163605513      -0.510170327       0.386142001
Nuclear contribution   :    -11.548635316       0.491687134      -0.782064535
                        -----------------------------------------
Total Dipole Moment    :     -1.385029804      -0.018483194      -0.395922534
                        -----------------------------------------
Magnitude (a.u.)       :      1.440626197
Magnitude (Debye)      :      3.661780785

Rotational constants in cm-1:             0.291890             0.066740             0.060659
Rotational constants in MHz :          8750.653667          2000.802263          1818.506563

                             ****ORCA TERMINATED NORMALLY****
TOTAL RUN TIME: 0 days 0 hours 0 minutes 8 seconds 278 msec
