                         Program Version 6.0.0  -   RELEASE  -
|  1> ! pbe def2-sv(p) def2/J RI DEFGRID1 loosescf d4 GCP(DFT/SV(P)) printgap
|  2> %output
|  3>     printlevel normal
|  4> end
|  5> * xyz 0 1
|  6> C -3.4667636222 1.9168520392 0.5608985979
|  7> C -3.1458375554 0.6824548071 -0.2759989135
|  8> H -3.6038170758 0.7567606049 -1.2652307636
|  9> C -1.6619198947 0.4180752594 -0.4516116197
| 10> C -1.2211813562 -0.1927554069 -1.6443967536
| 11> C 0.0982990074 -0.477671692 -1.8434484384
| 12> C 1.0609639003 -0.1707103498 -0.8566537912
| 13> C 2.4260383198 -0.4488468697 -1.0279511857
| 14> C 3.3426135923 -0.143272038 -0.0453043272
| 15> C 2.9062724396 0.4597161823 1.1513045234
| 16> C 1.5801646138 0.7377410078 1.3361171683
| 17> C 0.6215731838 0.4349166781 0.3499369564
| 18> C -0.7496648119 0.7102622633 0.5276126715
| 19> O 4.643723849 -0.458150801 -0.3144934942
| 20> C 5.6337352939 -0.1746678938 0.6560817575
| 21> C -3.6650559387 -0.580677355 0.380669054
| 22> O -3.7206029183 -0.7704387643 1.5759679666
| 23> O -4.010560626 -1.4985952199 -0.5080984575
| 24> H -4.5163073036 2.1769800528 0.4500445098
| 25> H -3.2789713363 1.7169699717 1.6128487235
| 26> H -2.8576004137 2.7560629621 0.2383876556
| 27> H -1.9493602622 -0.4379364009 -2.4033973202
| 28> H 0.4262878873 -0.9435601326 -2.7605511263
| 29> H 2.7737423178 -0.9100300208 -1.9394279038
| 30> H 3.6133317441 0.7054157922 1.9270050295
| 31> H 1.2514119582 1.1992625853 2.2554828922
| 32> H -1.0641143543 1.155673661 1.4585452804
| 33> H 5.6967646712 0.8980384769 0.8565176128
| 34> H 6.5676964227 -0.5187304647 0.2173524945
| 35> H 5.4445138598 -0.7172609231 1.5859367046
| 36> H -4.2918656502 -2.3396452846 -0.0980067167
| 37> *
| 38>
| 39>                          ****END OF INPUT****

CARTESIAN COORDINATES (ANGSTROEM)
---------------------------------
  C     -3.466764    1.916852    0.560899
  C     -3.145838    0.682455   -0.275999
  H     -3.603817    0.756761   -1.265231
  C     -1.661920    0.418075   -0.451612
  C     -1.221181   -0.192755   -1.644397
  C      0.098299   -0.477672   -1.843448
  C      1.060964   -0.170710   -0.856654
  C      2.426038   -0.448847   -1.027951
  C      3.342614   -0.143272   -0.045304
  C      2.906272    0.459716    1.151305
  C      1.580165    0.737741    1.336117
  C      0.621573    0.434917    0.349937
  C     -0.749665    0.710262    0.527613
  O      4.643724   -0.458151   -0.314493
  C      5.633735   -0.174668    0.656082
  C     -3.665056   -0.580677    0.380669
  O     -3.720603   -0.770439    1.575968
  O     -4.010561   -1.498595   -0.508098
  H     -4.516307    2.176980    0.450045
  H     -3.278971    1.716970    1.612849
  H     -2.857600    2.756063    0.238388
  H     -1.949360   -0.437936   -2.403397
  H      0.426288   -0.943560   -2.760551
  H      2.773742   -0.910030   -1.939428
  H      3.613332    0.705416    1.927005
  H      1.251412    1.199263    2.255483
  H     -1.064114    1.155674    1.458545
  H      5.696765    0.898038    0.856518
  H      6.567696   -0.518730    0.217352
  H      5.444514   -0.717261    1.585937
  H     -4.291866   -2.339645   -0.098007

 Total Charge           Charge          ....    0
 Multiplicity           Mult            ....    1
 Number of Electrons    NEL             ....  122
 Basis Dimension        Dim             ....  266

ORBITAL ENERGIES
----------------

  NO   OCC          E(Eh)            E(eV)
   0   2.0000     -18.800748      -511.5944
   1   2.0000     -18.789757      -511.2953
   2   2.0000     -18.735951      -509.8311
   3   2.0000     -10.012227      -272.4466
   4   2.0000      -9.952951      -270.8336
   5   2.0000      -9.942984      -270.5623
   6   2.0000      -9.912085      -269.7215
   7   2.0000      -9.903857      -269.4977
   8   2.0000      -9.899868      -269.3891
   9   2.0000      -9.896621      -269.3007
  10   2.0000      -9.896029      -269.2846
  11   2.0000      -9.895582      -269.2725
  12   2.0000      -9.890996      -269.1477
  13   2.0000      -9.889738      -269.1134
  14   2.0000      -9.889351      -269.1029
  15   2.0000      -9.884738      -268.9774
  16   2.0000      -9.879819      -268.8435
  17   2.0000      -1.009004       -27.4564
  18   2.0000      -0.969380       -26.3782
  19   2.0000      -0.910869       -24.7860
  20   2.0000      -0.794801       -21.6276
  21   2.0000      -0.756879       -20.5957
  22   2.0000      -0.717736       -19.5306
  23   2.0000      -0.697045       -18.9676
  24   2.0000      -0.663809       -18.0631
  25   2.0000      -0.657632       -17.8951
  26   2.0000      -0.618376       -16.8269
  27   2.0000      -0.612713       -16.6728
  28   2.0000      -0.568258       -15.4631
  29   2.0000      -0.548628       -14.9289
  30   2.0000      -0.538600       -14.6561
  31   2.0000      -0.517327       -14.0772
  32   2.0000      -0.483575       -13.1588
  33   2.0000      -0.463082       -12.6011
  34   2.0000      -0.459013       -12.4904
  35   2.0000      -0.443373       -12.0648
  36   2.0000      -0.423029       -11.5112
  37   2.0000      -0.419083       -11.4038
  38   2.0000      -0.411861       -11.2073
  39   2.0000      -0.411096       -11.1865
  40   2.0000      -0.395537       -10.7631
  41   2.0000      -0.391999       -10.6668
  42   2.0000      -0.378123       -10.2892
  43   2.0000      -0.371561       -10.1107
  44   2.0000      -0.361882        -9.8473
  45   2.0000      -0.356556        -9.7024
  46   2.0000      -0.352023        -9.5790
  47   2.0000      -0.347571        -9.4579
  48   2.0000      -0.332392        -9.0449
  49   2.0000      -0.325948        -8.8695
  50   2.0000      -0.317059        -8.6276
  51   2.0000      -0.310132        -8.4391
  52   2.0000      -0.296908        -8.0793
  53   2.0000      -0.293093        -7.9755
  54   2.0000      -0.279400        -7.6028
  55   2.0000      -0.272955        -7.4275
  56   2.0000      -0.270712        -7.3664
  57   2.0000      -0.248653        -6.7662
  58   2.0000      -0.223029        -6.0689
  59   2.0000      -0.210840        -5.7372
  60   2.0000      -0.180469        -4.9108
  61   0.0000      -0.067103        -1.8260
  62   0.0000      -0.039536        -1.0758
  63   0.0000      -0.008614        -0.2344
  64   0.0000      -0.001740        -0.0473
  65   0.0000       0.026564         0.7228

MULLIKEN ATOMIC CHARGES
-----------------------
   0 C :   -0.218885
   1 C :   -0.146661
   2 H :    0.081500
   3 C :    0.096766
   4 C :   -0.092309
   5 C :   -0.124111
   6 C :    0.173085
   7 C :   -0.226916
   8 C :    0.299782
   9 C :   -0.173075
  10 C :   -0.135749
  11 C :    0.184896
  12 C :   -0.211883
  13 O :   -0.270415
  14 C :   -0.115181
  15 C :    0.126502
  16 O :   -0.188488
  17 O :   -0.285470
  18 H :    0.104683
  19 H :    0.128857
  20 H :    0.107845
  21 H :    0.041359
  22 H :    0.034718
  23 H :    0.029944
  24 H :    0.039204
  25 H :    0.040858
  26 H :    0.033006
  27 H :    0.111730
  28 H :    0.126892
  29 H :    0.112073
  30 H :    0.315443
Sum of atomic charges:   -0.0000000

LOEWDIN ATOMIC CHARGES
----------------------
   0 C :   -0.324337
   1 C :   -0.154592
   2 H :    0.132985
   3 C :   -0.039840
   4 C :   -0.117857
   5 C :   -0.113917
   6 C :   -0.020408
   7 C :   -0.139626
   8 C :    0.029803
   9 C :   -0.164721
  10 C :   -0.102254
  11 C :   -0.034274
  12 C :   -0.103132
  13 O :   -0.093092
  14 C :   -0.202544
  15 C :    0.038953
  16 O :   -0.168318
  17 O :   -0.201804
  18 H :    0.124764
  19 H :    0.128747
  20 H :    0.125360
  21 H :    0.123962
  22 H :    0.123920
  23 H :    0.129725
  24 H :    0.127564
  25 H :    0.125649
  26 H :    0.127045
  27 H :    0.109699
  28 H :    0.123338
  29 H :    0.109880
  30 H :    0.299323

  Mayer bond orders larger than 0.100000
B(  0-C ,  1-C ) :   1.1229 B(  0-C , 18-H ) :   0.9472 B(  0-C , 19-H ) :   0.9206
B(  0-C , 20-H ) :   0.9486 B(  1-C ,  2-H ) :   0.8753 B(  1-C ,  3-C ) :   1.0107
B(  1-C , 15-C ) :   0.9141 B(  3-C ,  4-C ) :   1.2589 B(  3-C , 12-C ) :   1.4483
B(  4-C ,  5-C ) :   1.4559 B(  4-C , 21-H ) :   0.9590 B(  5-C ,  6-C ) :   1.2178
B(  5-C , 22-H ) :   0.9664 B(  6-C ,  7-C ) :   1.2287 B(  6-C , 11-C ) :   1.2399
B(  7-C ,  8-C ) :   1.3830 B(  7-C , 10-C ) :   0.1000 B(  7-C , 23-H ) :   0.9725
B(  8-C ,  9-C ) :   1.1953 B(  8-C , 13-O ) :   1.1347 B(  9-C , 10-C ) :   1.4243
B(  9-C , 24-H ) :   0.9598 B( 10-C , 11-C ) :   1.2342 B( 10-C , 25-H ) :   0.9636
B( 11-C , 12-C ) :   1.2111 B( 12-C , 26-H ) :   0.9593 B( 13-O , 14-C ) :   0.9877
B( 14-C , 27-H ) :   0.9422 B( 14-C , 28-H ) :   0.9589 B( 14-C , 29-H ) :   0.9420
B( 15-C , 16-O ) :   2.1007 B( 15-C , 17-O ) :   1.2921 B( 17-O , 30-H ) :   0.8189

Dispersion correction           -0.038986867
FINAL SINGLE POINT ENERGY      -765.992517039119

DIPOLE MOMENT
-------------

Method             : SCF
Type of density    : Electron Density
Multiplicity       :   1
Irrep              :   0
Energy             :  -766.0866357326365232 Eh
Relativity type    :
Basis              : AO
                                X                 Y                 Z
Electronic contribution:     -3.425824417      -5.138841833      -2.121939712
Nuclear contribution   :      3.905573454       5.117667712       2.014629300
                        -----------------------------------------
Total Dipole Moment    :      0.479749037      -0.021174120      -0.107310412
                        -----------------------------------------
Magnitude (a.u.)       :      0.492059962
Magnitude (Debye)      :      1.250717028

Rotational constants in cm-1:             0.043268             0.007111             0.006708
Rotational constants in MHz :          1297.147355           213.172085           201.110716

                             ****ORCA TERMINATED NORMALLY****
TOTAL RUN TIME: 0 days 0 hours 0 minutes 27 seconds 921 msec
