                         Program Version 6.0.0  -   RELEASE  -
|  1> ! r2scan-3c def2/J RI DEFGRID2 scfconv6 printgap
|  2> %output
|  3>     printlevel normal
|  4> end
|  5> * xyz 0 1
|  6> C 2.5517955356 -0.3230447255 -0.0001745707
|  7> C 1.2828061417 0.5216782549 0.0001025584
|  8> C 0.0247203334 -0.3424688628 0.0002817518
|  9> C -1.255611047 0.5037545227 -9.2119e-05
| 10> N -2.494464822 -0.2600764949 -9.90544e-05
| 11> H 2.5861754985 -0.9588740246 -0.882079776
| 12> H 3.4332991558 0.3130624941 -0.0004453406
| 13> H 2.5866434476 -0.9587820302 0.8817775625
| 14> H 1.2746575479 1.1665626575 0.8815443493
| 15> H 1.2743384604 1.1666364839 -0.881283267
| 16> H 0.0283992937 -0.9879061541 -0.8828735295
| 17> H 0.0282618268 -0.9873745655 0.8838248055
| 18> H -1.2661675983 1.1477022064 -0.8840903095
| 19> H -1.266426908 1.1481269012 0.8835937155
| 20> H -2.5208365376 -0.8621429702 -0.8166767257
| 21> H -2.5210309237 -0.8618556662 0.8166834005
| 22> *
| 23>
| 24>                          ****END OF INPUT****

CARTESIAN COORDINATES (ANGSTROEM)
---------------------------------
  C      2.551796   -0.323045   -0.000175
  C      1.282806    0.521678    0.000103
  C      0.024720   -0.342469    0.000282
  C     -1.255611    0.503755   -0.000092
  N     -2.494465   -0.260076   -0.000099
  H      2.586175   -0.958874   -0.882080
  H      3.433299    0.313062   -0.000445
  H      2.586643   -0.958782    0.881778
  H      1.274658    1.166563    0.881544
  H      1.274338    1.166636   -0.881283
  H      0.028399   -0.987906   -0.882874
  H      0.028262   -0.987375    0.883825
  H     -1.266168    1.147702   -0.884090
  H     -1.266427    1.148127    0.883594
  H     -2.520837   -0.862143   -0.816677
  H     -2.521031   -0.861856    0.816683

 Total Charge           Charge          ....    0
 Multiplicity           Mult            ....    1
 Number of Electrons    NEL             ....   42
 Basis Dimension        Dim             ....  155

ORBITAL ENERGIES
----------------

  NO   OCC          E(Eh)            E(eV)
   0   2.0000     -14.132946      -384.5770
   1   2.0000     -10.046879      -273.3895
   2   2.0000     -10.025203      -272.7996
   3   2.0000     -10.021453      -272.6976
   4   2.0000     -10.016688      -272.5679
   5   2.0000      -0.845462       -23.0062
   6   2.0000      -0.753734       -20.5101
   7   2.0000      -0.670556       -18.2468
   8   2.0000      -0.584740       -15.9116
   9   2.0000      -0.547302       -14.8928
  10   2.0000      -0.469021       -12.7627
  11   2.0000      -0.426653       -11.6098
  12   2.0000      -0.405963       -11.0468
  13   2.0000      -0.396422       -10.7872
  14   2.0000      -0.365261        -9.9393
  15   2.0000      -0.344347        -9.3702
  16   2.0000      -0.320917        -8.7326
  17   2.0000      -0.313937        -8.5427
  18   2.0000      -0.303087        -8.2474
  19   2.0000      -0.295230        -8.0336
  20   2.0000      -0.201312        -5.4780
  21   0.0000       0.074056         2.0152
  22   0.0000       0.100647         2.7387
  23   0.0000       0.118481         3.2240
  24   0.0000       0.128057         3.4846
  25   0.0000       0.136910         3.7255

MULLIKEN ATOMIC CHARGES
-----------------------
   0 C :   -0.463087
   1 C :   -0.248360
   2 C :   -0.213111
   3 C :   -0.279884
   4 N :   -0.527344
   5 H :    0.140749
   6 H :    0.145782
   7 H :    0.140746
   8 H :    0.136412
   9 H :    0.136399
  10 H :    0.130217
  11 H :    0.130233
  12 H :    0.145725
  13 H :    0.145719
  14 H :    0.239904
  15 H :    0.239902
Sum of atomic charges:    0.0000000

LOEWDIN ATOMIC CHARGES
----------------------
   0 C :   -0.424916
   1 C :   -0.317715
   2 C :   -0.305999
   3 C :   -0.084548
   4 N :   -0.732310
   5 H :    0.149427
   6 H :    0.149647
   7 H :    0.149429
   8 H :    0.151409
   9 H :    0.151406
  10 H :    0.151621
  11 H :    0.151623
  12 H :    0.171519
  13 H :    0.171520
  14 H :    0.233944
  15 H :    0.233944

  Mayer bond orders larger than 0.100000
B(  0-C ,  1-C ) :   0.8928 B(  0-C ,  5-H ) :   0.9839 B(  0-C ,  6-H ) :   0.9737
B(  0-C ,  7-H ) :   0.9839 B(  1-C ,  2-C ) :   0.9295 B(  1-C ,  8-H ) :   0.9721
B(  1-C ,  9-H ) :   0.9721 B(  2-C ,  3-C ) :   0.8603 B(  2-C , 10-H ) :   0.9636
B(  2-C , 11-H ) :   0.9635 B(  3-C ,  4-N ) :   0.9552 B(  3-C , 12-H ) :   1.0054
B(  3-C , 13-H ) :   1.0054 B(  4-N , 14-H ) :   0.9174 B(  4-N , 15-H ) :   0.9174

Dispersion correction           -0.003324875
FINAL SINGLE POINT ENERGY      -213.723757891244

DIPOLE MOMENT
-------------

Method             : SCF
Type of density    : Electron Density
Multiplicity       :   1
Irrep              :   0
Energy             :  -213.7309052915529151 Eh
Relativity type    :
Basis              : AO
                                X                 Y                 Z
Electronic contribution:     -2.987615844       0.317557377       0.000143070
Nuclear contribution   :      3.398759666      -0.634534961      -0.000024103
                        -----------------------------------------
Total Dipole Moment    :      0.411143822      -0.316977585       0.000118966
                        -----------------------------------------
Magnitude (a.u.)       :      0.519147422
Magnitude (Debye)      :      1.319567879

Rotational constants in cm-1:             0.594206             0.065749             0.062550
Rotational constants in MHz :         17813.861681          1971.118418          1875.188383

                             ****ORCA TERMINATED NORMALLY****
TOTAL RUN TIME: 0 days 0 hours 0 minutes 17 seconds 26 msec
