                         Program Version 6.0.0  -   RELEASE  -
|  1> ! r2scan-3c def2/J RI DEFGRID2 scfconv6 printgap
|  2> %output
|  3>     printlevel normal
|  4> end
|  5> %cpcm
|  6>     smd true
|  7>     smdsolvent "water"
|  8> end
|  9> * xyz 0 1
| 10> C 2.5517955356 -0.3230447255 -0.0001745707
| 11> C 1.2828061417 0.5216782549 0.0001025584
| 12> C 0.0247203334 -0.3424688628 0.0002817518
| 13> C -1.255611047 0.5037545227 -9.2119e-05
| 14> N -2.494464822 -0.2600764949 -9.90544e-05
| 15> H 2.5861754985 -0.9588740246 -0.882079776
| 16> H 3.4332991558 0.3130624941 -0.0004453406
| 17> H 2.5866434476 -0.9587820302 0.8817775625
| 18> H 1.2746575479 1.1665626575 0.8815443493
| 19> H 1.2743384604 1.1666364839 -0.881283267
| 20> H 0.0283992937 -0.9879061541 -0.8828735295
| 21> H 0.0282618268 -0.9873745655 0.8838248055
| 22> H -1.2661675983 1.1477022064 -0.8840903095
| 23> H -1.266426908 1.1481269012 0.8835937155
| 24> H -2.5208365376 -0.8621429702 -0.8166767257
| 25> H -2.5210309237 -0.8618556662 0.8166834005
| 26> *
| 27>
| 28>                          ****END OF INPUT****

CARTESIAN COORDINATES (ANGSTROEM)
---------------------------------
  C      2.551796   -0.323045   -0.000175
  C      1.282806    0.521678    0.000103
  C      0.024720   -0.342469    0.000282
  C     -1.255611    0.503755   -0.000092
  N     -2.494465   -0.260076   -0.000099
  H      2.586175   -0.958874   -0.882080
  H      3.433299    0.313062   -0.000445
  H      2.586643   -0.958782    0.881778
  H      1.274658    1.166563    0.881544
  H      1.274338    1.166636   -0.881283
  H      0.028399   -0.987906   -0.882874
  H      0.028262   -0.987375    0.883825
  H     -1.266168    1.147702   -0.884090
  H     -1.266427    1.148127    0.883594
  H     -2.520837   -0.862143   -0.816677
  H     -2.521031   -0.861856    0.816683

 Total Charge           Charge          ....    0
 Multiplicity           Mult            ....    1
 Number of Electrons    NEL             ....   42
 Basis Dimension        Dim             ....  155

ORBITAL ENERGIES
----------------

  NO   OCC          E(Eh)            E(eV)
   0   2.0000     -14.126963      -384.4142
   1   2.0000     -10.039676      -273.1935
   2   2.0000     -10.015516      -272.5361
   3   2.0000     -10.011375      -272.4234
   4   2.0000     -10.007067      -272.3061
   5   2.0000      -0.839270       -22.8377
   6   2.0000      -0.744309       -20.2537
   7   2.0000      -0.661946       -18.0125
   8   2.0000      -0.576951       -15.6996
   9   2.0000      -0.537933       -14.6379
  10   2.0000      -0.460518       -12.5313
  11   2.0000      -0.417034       -11.3481
  12   2.0000      -0.398537       -10.8448
  13   2.0000      -0.388229       -10.5643
  14   2.0000      -0.355793        -9.6816
  15   2.0000      -0.336579        -9.1588
  16   2.0000      -0.313301        -8.5254
  17   2.0000      -0.304809        -8.2943
  18   2.0000      -0.293556        -7.9881
  19   2.0000      -0.284467        -7.7407
  20   2.0000      -0.201855        -5.4928
  21   0.0000       0.085187         2.3181
  22   0.0000       0.110925         3.0184
  23   0.0000       0.125920         3.4265
  24   0.0000       0.141927         3.8620
  25   0.0000       0.146152         3.9770

MULLIKEN ATOMIC CHARGES
-----------------------
   0 C :   -0.505625
   1 C :   -0.257569
   2 C :   -0.239467
   3 C :   -0.276353
   4 N :   -0.626996
   5 H :    0.152320
   6 H :    0.154480
   7 H :    0.152313
   8 H :    0.145184
   9 H :    0.145171
  10 H :    0.144246
  11 H :    0.144263
  12 H :    0.151643
  13 H :    0.151632
  14 H :    0.282380
  15 H :    0.282378
Sum of atomic charges:    0.0000000

LOEWDIN ATOMIC CHARGES
----------------------
   0 C :   -0.433616
   1 C :   -0.319557
   2 C :   -0.305057
   3 C :   -0.089376
   4 N :   -0.758243
   5 H :    0.151919
   6 H :    0.151403
   7 H :    0.151920
   8 H :    0.153331
   9 H :    0.153329
  10 H :    0.155589
  11 H :    0.155592
  12 H :    0.173041
  13 H :    0.173040
  14 H :    0.243342
  15 H :    0.243342

  Mayer bond orders larger than 0.100000
B(  0-C ,  1-C ) :   0.8835 B(  0-C ,  5-H ) :   0.9817 B(  0-C ,  6-H ) :   0.9713
B(  0-C ,  7-H ) :   0.9816 B(  1-C ,  2-C ) :   0.9267 B(  1-C ,  8-H ) :   0.9716
B(  1-C ,  9-H ) :   0.9717 B(  2-C ,  3-C ) :   0.8787 B(  2-C , 10-H ) :   0.9638
B(  2-C , 11-H ) :   0.9638 B(  3-C ,  4-N ) :   0.9648 B(  3-C , 12-H ) :   0.9957
B(  3-C , 13-H ) :   0.9957 B(  4-N , 14-H ) :   0.9013 B(  4-N , 15-H ) :   0.9013

Dispersion correction           -0.003324875
FINAL SINGLE POINT ENERGY      -213.729517283857

DIPOLE MOMENT
-------------

Method             : SCF
Type of density    : Electron Density
Multiplicity       :   1
Irrep              :   0
Energy             :  -213.7366646841657882 Eh
Relativity type    :
Basis              : AO
                                X                 Y                 Z
Electronic contribution:     -2.861344885       0.186482259       0.000174709
Nuclear contribution   :      3.398759666      -0.634534961      -0.000024103
                        -----------------------------------------
Total Dipole Moment    :      0.537414781      -0.448052702       0.000150606
                        -----------------------------------------
Magnitude (a.u.)       :      0.699689855
Magnitude (Debye)      :      1.778470273

Rotational constants in cm-1:             0.594206             0.065749             0.062550
Rotational constants in MHz :         17813.861681          1971.118418          1875.188383

                             ****ORCA TERMINATED NORMALLY****
TOTAL RUN TIME: 0 days 0 hours 0 minutes 20 seconds 635 msec
