                         Program Version 6.0.0  -   RELEASE  -
|  1> ! r2scan-3c def2/J RI DEFGRID2 scfconv6 printgap
|  2> %output
|  3>     printlevel normal
|  4> end
|  5> * xyz 0 1
|  6> C -4.46067611 -1.1923582719 0.2583269373
|  7> C -3.6893848406 -2.3202912071 0.0140708959
|  8> C -2.3273766903 -2.1972169926 -0.1880595871
|  9> C -1.7102176668 -0.948676939 -0.1447234365
| 10> C -2.489350983 0.1868443356 0.1027525773
| 11> C -3.8626928393 0.0527131416 0.2999723717
| 12> C -1.8762262578 1.5195305712 0.1549518683
| 13> O -2.5525347564 2.5310055354 0.3341857571
| 14> C -0.4132768677 1.5844465235 -0.0043688352
| 15> C 0.1731212439 2.8312016862 0.1247090715
| 16> C 1.5518695007 2.9781683996 -0.0066820265
| 17> C 2.3388304119 1.888475282 -0.2615980138
| 18> C 1.7876106295 0.5897551257 -0.3946602973
| 19> C 0.3703003557 0.4353819996 -0.2681154965
| 20> C -0.2542898845 -0.8642363089 -0.3773468391
| 21> O 0.3676151749 -1.9079126431 -0.6490316047
| 22> N 2.5569648225 -0.4660615551 -0.6787800995
| 23> C 3.9890502132 -0.5806257128 -0.5817450235
| 24> C 4.3595857857 -1.7831840773 0.2891394118
| 25> O 3.9894715791 -1.4939104905 1.6228564885
| 26> H -5.5237483517 -1.2853581713 0.4151914005
| 27> H -4.1511845356 -3.294598984 -0.0195401324
| 28> H -1.7111164205 -3.0622786846 -0.3834497118
| 29> H -4.4375577245 0.9478475273 0.4862577372
| 30> H -0.4639568044 3.6790659422 0.3242564912
| 31> H 1.995590751 3.9570064988 0.0856261545
| 32> H 3.4002442224 2.0229005579 -0.3840795649
| 33> H 2.0489492685 -1.3464712046 -0.7651781778
| 34> H 4.4151526052 0.3098604919 -0.1216180907
| 35> H 4.4175777006 -0.7195384293 -1.5792285364
| 36> H 5.4413121629 -1.9536155001 0.2194364851
| 37> H 3.8316365773 -2.6746370243 -0.072974238
| 38> H 4.1736953953 -2.2578954974 2.1836501891
| 39> *
| 40>
| 41>                          ****END OF INPUT****

CARTESIAN COORDINATES (ANGSTROEM)
---------------------------------
  C     -4.460676   -1.192358    0.258327
  C     -3.689385   -2.320291    0.014071
  C     -2.327377   -2.197217   -0.188060
  C     -1.710218   -0.948677   -0.144723
  C     -2.489351    0.186844    0.102753
  C     -3.862693    0.052713    0.299972
  C     -1.876226    1.519531    0.154952
  O     -2.552535    2.531006    0.334186
  C     -0.413277    1.584447   -0.004369
  C      0.173121    2.831202    0.124709
  C      1.551870    2.978168   -0.006682
  C      2.338830    1.888475   -0.261598
  C      1.787611    0.589755   -0.394660
  C      0.370300    0.435382   -0.268115
  C     -0.254290   -0.864236   -0.377347
  O      0.367615   -1.907913   -0.649032
  N      2.556965   -0.466062   -0.678780
  C      3.989050   -0.580626   -0.581745
  C      4.359586   -1.783184    0.289139
  O      3.989472   -1.493910    1.622856
  H     -5.523748   -1.285358    0.415191
  H     -4.151185   -3.294599   -0.019540
  H     -1.711116   -3.062279   -0.383450
  H     -4.437558    0.947848    0.486258
  H     -0.463957    3.679066    0.324256
  H      1.995591    3.957006    0.085626
  H      3.400244    2.022901   -0.384080
  H      2.048949   -1.346471   -0.765178
  H      4.415153    0.309860   -0.121618
  H      4.417578   -0.719538   -1.579229
  H      5.441312   -1.953616    0.219436
  H      3.831637   -2.674637   -0.072974
  H      4.173695   -2.257895    2.183650

 Total Charge           Charge          ....    0
 Multiplicity           Mult            ....    1
 Number of Electrons    NEL             ....  140
 Basis Dimension        Dim             ....  465

ORBITAL ENERGIES
----------------

  NO   OCC          E(Eh)            E(eV)
   0   2.0000     -18.963299      -516.0176
   1   2.0000     -18.937949      -515.3278
   2   2.0000     -18.933372      -515.2033
   3   2.0000     -14.184738      -385.9863
   4   2.0000     -10.120139      -275.3830
   5   2.0000     -10.117584      -275.3135
   6   2.0000     -10.100152      -274.8391
   7   2.0000     -10.097182      -274.7583
   8   2.0000     -10.083813      -274.3945
   9   2.0000     -10.055575      -273.6261
  10   2.0000     -10.054107      -273.5861
  11   2.0000     -10.053181      -273.5610
  12   2.0000     -10.052320      -273.5375
  13   2.0000     -10.050863      -273.4979
  14   2.0000     -10.050744      -273.4947
  15   2.0000     -10.049681      -273.4657
  16   2.0000     -10.046910      -273.3903
  17   2.0000     -10.046671      -273.3838
  18   2.0000     -10.046174      -273.3703
  19   2.0000     -10.036389      -273.1040
  20   2.0000      -1.002612       -27.2825
  21   2.0000      -1.000379       -27.2217
  22   2.0000      -0.997465       -27.1424
  23   2.0000      -0.925205       -25.1761
  24   2.0000      -0.847078       -23.0502
  25   2.0000      -0.830264       -22.5926
  26   2.0000      -0.770637       -20.9701
  27   2.0000      -0.750610       -20.4251
  28   2.0000      -0.733682       -19.9645
  29   2.0000      -0.728310       -19.8183
  30   2.0000      -0.697313       -18.9748
  31   2.0000      -0.647222       -17.6118
  32   2.0000      -0.629385       -17.1264
  33   2.0000      -0.613403       -16.6915
  34   2.0000      -0.596557       -16.2331
  35   2.0000      -0.568424       -15.4676
  36   2.0000      -0.549555       -14.9542
  37   2.0000      -0.518215       -14.1013
  38   2.0000      -0.515685       -14.0325
  39   2.0000      -0.508043       -13.8245
  40   2.0000      -0.481335       -13.0978
  41   2.0000      -0.467127       -12.7112
  42   2.0000      -0.456960       -12.4345
  43   2.0000      -0.443553       -12.0697
  44   2.0000      -0.439955       -11.9718
  45   2.0000      -0.425435       -11.5767
  46   2.0000      -0.420445       -11.4409
  47   2.0000      -0.409511       -11.1433
  48   2.0000      -0.404746       -11.0137
  49   2.0000      -0.403955       -10.9922
  50   2.0000      -0.399430       -10.8690
  51   2.0000      -0.394688       -10.7400
  52   2.0000      -0.384230       -10.4554
  53   2.0000      -0.375078       -10.2064
  54   2.0000      -0.368546       -10.0286
  55   2.0000      -0.359712        -9.7883
  56   2.0000      -0.350388        -9.5345
  57   2.0000      -0.342188        -9.3114
  58   2.0000      -0.331805        -9.0289
  59   2.0000      -0.327636        -8.9154
  60   2.0000      -0.319312        -8.6889
  61   2.0000      -0.318073        -8.6552
  62   2.0000      -0.289184        -7.8691
  63   2.0000      -0.256880        -6.9901
  64   2.0000      -0.253941        -6.9101
  65   2.0000      -0.247769        -6.7421
  66   2.0000      -0.246869        -6.7176
  67   2.0000      -0.230244        -6.2653
  68   2.0000      -0.218108        -5.9350
  69   2.0000      -0.192228        -5.2308
  70   0.0000      -0.124979        -3.4008
  71   0.0000      -0.075137        -2.0446
  72   0.0000      -0.046059        -1.2533
  73   0.0000      -0.024122        -0.6564
  74   0.0000       0.026641         0.7249

MULLIKEN ATOMIC CHARGES
-----------------------
   0 C :   -0.132842
   1 C :   -0.129189
   2 C :   -0.225881
   3 C :    0.187959
   4 C :    0.134160
   5 C :   -0.217592
   6 C :    0.037708
   7 O :   -0.355467
   8 C :    0.191552
   9 C :   -0.250500
  10 C :   -0.129835
  11 C :   -0.332755
  12 C :    0.311393
  13 C :   -0.129024
  14 C :    0.029222
  15 O :   -0.445448
  16 N :   -0.047201
  17 C :   -0.231907
  18 C :   -0.114959
  19 O :   -0.411327
  20 H :    0.148534
  21 H :    0.148118
  22 H :    0.181930
  23 H :    0.181803
  24 H :    0.184832
  25 H :    0.146802
  26 H :    0.134071
  27 H :    0.302063
  28 H :    0.129504
  29 H :    0.155260
  30 H :    0.126767
  31 H :    0.123509
  32 H :    0.298742
Sum of atomic charges:    0.0000000

LOEWDIN ATOMIC CHARGES
----------------------
   0 C :   -0.144884
   1 C :   -0.141638
   2 C :   -0.103168
   3 C :   -0.024477
   4 C :   -0.035553
   5 C :   -0.097725
   6 C :    0.269425
   7 O :   -0.481531
   8 C :   -0.024258
   9 C :   -0.124365
  10 C :   -0.127973
  11 C :   -0.134769
  12 C :    0.208609
  13 C :   -0.034837
  14 C :    0.270083
  15 O :   -0.542484
  16 N :   -0.664725
  17 C :   -0.012087
  18 C :    0.034110
  19 O :   -0.608670
  20 H :    0.170162
  21 H :    0.169955
  22 H :    0.192442
  23 H :    0.191547
  24 H :    0.193346
  25 H :    0.171485
  26 H :    0.172197
  27 H :    0.296523
  28 H :    0.189185
  29 H :    0.181165
  30 H :    0.160560
  31 H :    0.162443
  32 H :    0.269906

  Mayer bond orders larger than 0.100000
B(  0-C ,  1-C ) :   1.3228 B(  0-C ,  5-C ) :   1.3588 B(  0-C , 20-H ) :   0.9556
B(  1-C ,  2-C ) :   1.3516 B(  1-C , 21-H ) :   0.9556 B(  2-C ,  3-C ) :   1.3521
B(  2-C , 15-O ) :   0.1040 B(  2-C , 22-H ) :   0.9589 B(  3-C ,  4-C ) :   1.5187
B(  3-C , 14-C ) :   0.9268 B(  3-C , 15-O ) :  -0.2000 B(  4-C ,  5-C ) :   1.3493
B(  4-C ,  6-C ) :   0.8610 B(  4-C ,  7-O ) :  -0.2228 B(  5-C ,  7-O ) :   0.1087
B(  5-C , 23-H ) :   0.9629 B(  6-C ,  7-O ) :   2.0975 B(  6-C ,  8-C ) :   0.8688
B(  7-O ,  8-C ) :  -0.2155 B(  7-O ,  9-C ) :   0.1245 B(  8-C ,  9-C ) :   1.4064
B(  8-C , 13-C ) :   1.2621 B(  9-C , 10-C ) :   1.2510 B(  9-C , 24-H ) :   0.9644
B( 10-C , 11-C ) :   1.4087 B( 10-C , 25-H ) :   0.9641 B( 11-C , 12-C ) :   1.1114
B( 11-C , 26-H ) :   0.9503 B( 12-C , 13-C ) :   1.2858 B( 12-C , 14-C ) :  -0.1049
B( 12-C , 16-N ) :   1.2701 B( 13-C , 14-C ) :   0.9570 B( 13-C , 15-O ) :  -0.1052
B( 14-C , 15-O ) :   1.8599 B( 16-N , 17-C ) :   0.8674 B( 16-N , 27-H ) :   0.8316
B( 17-C , 18-C ) :   0.9999 B( 17-C , 28-H ) :   0.9465 B( 17-C , 29-H ) :   0.9523
B( 18-C , 19-O ) :   0.9239 B( 18-C , 30-H ) :   0.9599 B( 18-C , 31-H ) :   0.9550
B( 19-O , 32-H ) :   0.8985

Dispersion correction           -0.015607578
FINAL SINGLE POINT ENERGY      -897.782189731477

DIPOLE MOMENT
-------------

Method             : SCF
Type of density    : Electron Density
Multiplicity       :   1
Irrep              :   0
Energy             :  -897.7829106140811746 Eh
Relativity type    :
Basis              : AO
                                X                 Y                 Z
Electronic contribution:    -11.228787029       4.301580958      -0.417473205
Nuclear contribution   :     12.646601140      -5.342124705       0.379979091
                        -----------------------------------------
Total Dipole Moment    :      1.417814112      -1.040543747      -0.037494114
                        -----------------------------------------
Magnitude (a.u.)       :      1.759071901
Magnitude (Debye)      :      4.471205439

Rotational constants in cm-1:             0.019467             0.008102             0.006047
Rotational constants in MHz :           583.613629           242.885601           181.279073

                             ****ORCA TERMINATED NORMALLY****
TOTAL RUN TIME: 0 days 0 hours 2 minutes 0 seconds 963 msec
