                         Program Version 6.0.0  -   RELEASE  -
|  1> ! r2scan-3c def2/J RI DEFGRID2 scfconv6 printgap
|  2> %output
|  3>     printlevel normal
|  4> end
|  5> %cpcm
|  6>     smd true
|  7>     smdsolvent "water"
|  8> end
|  9> * xyz 0 1
| 10> C -4.46067611 -1.1923582719 0.2583269373
| 11> C -3.6893848406 -2.3202912071 0.0140708959
| 12> C -2.3273766903 -2.1972169926 -0.1880595871
| 13> C -1.7102176668 -0.948676939 -0.1447234365
| 14> C -2.489350983 0.1868443356 0.1027525773
| 15> C -3.8626928393 0.0527131416 0.2999723717
| 16> C -1.8762262578 1.5195305712 0.1549518683
| 17> O -2.5525347564 2.5310055354 0.3341857571
| 18> C -0.4132768677 1.5844465235 -0.0043688352
| 19> C 0.1731212439 2.8312016862 0.1247090715
| 20> C 1.5518695007 2.9781683996 -0.0066820265
| 21> C 2.3388304119 1.888475282 -0.2615980138
| 22> C 1.7876106295 0.5897551257 -0.3946602973
| 23> C 0.3703003557 0.4353819996 -0.2681154965
| 24> C -0.2542898845 -0.8642363089 -0.3773468391
| 25> O 0.3676151749 -1.9079126431 -0.6490316047
| 26> N 2.5569648225 -0.4660615551 -0.6787800995
| 27> C 3.9890502132 -0.5806257128 -0.5817450235
| 28> C 4.3595857857 -1.7831840773 0.2891394118
| 29> O 3.9894715791 -1.4939104905 1.6228564885
| 30> H -5.5237483517 -1.2853581713 0.4151914005
| 31> H -4.1511845356 -3.294598984 -0.0195401324
| 32> H -1.7111164205 -3.0622786846 -0.3834497118
| 33> H -4.4375577245 0.9478475273 0.4862577372
| 34> H -0.4639568044 3.6790659422 0.3242564912
| 35> H 1.995590751 3.9570064988 0.0856261545
| 36> H 3.4002442224 2.0229005579 -0.3840795649
| 37> H 2.0489492685 -1.3464712046 -0.7651781778
| 38> H 4.4151526052 0.3098604919 -0.1216180907
| 39> H 4.4175777006 -0.7195384293 -1.5792285364
| 40> H 5.4413121629 -1.9536155001 0.2194364851
| 41> H 3.8316365773 -2.6746370243 -0.072974238
| 42> H 4.1736953953 -2.2578954974 2.1836501891
| 43> *
| 44>
| 45>                          ****END OF INPUT****

CARTESIAN COORDINATES (ANGSTROEM)
---------------------------------
  C     -4.460676   -1.192358    0.258327
  C     -3.689385   -2.320291    0.014071
  C     -2.327377   -2.197217   -0.188060
  C     -1.710218   -0.948677   -0.144723
  C     -2.489351    0.186844    0.102753
  C     -3.862693    0.052713    0.299972
  C     -1.876226    1.519531    0.154952
  O     -2.552535    2.531006    0.334186
  C     -0.413277    1.584447   -0.004369
  C      0.173121    2.831202    0.124709
  C      1.551870    2.978168   -0.006682
  C      2.338830    1.888475   -0.261598
  C      1.787611    0.589755   -0.394660
  C      0.370300    0.435382   -0.268115
  C     -0.254290   -0.864236   -0.377347
  O      0.367615   -1.907913   -0.649032
  N      2.556965   -0.466062   -0.678780
  C      3.989050   -0.580626   -0.581745
  C      4.359586   -1.783184    0.289139
  O      3.989472   -1.493910    1.622856
  H     -5.523748   -1.285358    0.415191
  H     -4.151185   -3.294599   -0.019540
  H     -1.711116   -3.062279   -0.383450
  H     -4.437558    0.947848    0.486258
  H     -0.463957    3.679066    0.324256
  H      1.995591    3.957006    0.085626
  H      3.400244    2.022901   -0.384080
  H      2.048949   -1.346471   -0.765178
  H      4.415153    0.309860   -0.121618
  H      4.417578   -0.719538   -1.579229
  H      5.441312   -1.953616    0.219436
  H      3.831637   -2.674637   -0.072974
  H      4.173695   -2.257895    2.183650

 Total Charge           Charge          ....    0
 Multiplicity           Mult            ....    1
 Number of Electrons    NEL             ....  140
 Basis Dimension        Dim             ....  465

ORBITAL ENERGIES
----------------

  NO   OCC          E(Eh)            E(eV)
   0   2.0000     -18.954632      -515.7817
   1   2.0000     -18.948688      -515.6200
   2   2.0000     -18.946335      -515.5560
   3   2.0000     -14.184847      -385.9893
   4   2.0000     -10.131501      -275.6922
   5   2.0000     -10.127342      -275.5790
   6   2.0000     -10.101693      -274.8810
   7   2.0000     -10.078304      -274.2446
   8   2.0000     -10.066306      -273.9181
   9   2.0000     -10.060029      -273.7473
  10   2.0000     -10.059843      -273.7423
  11   2.0000     -10.058068      -273.6940
  12   2.0000     -10.056148      -273.6417
  13   2.0000     -10.050006      -273.4746
  14   2.0000     -10.049811      -273.4693
  15   2.0000     -10.049599      -273.4635
  16   2.0000     -10.048143      -273.4239
  17   2.0000     -10.047883      -273.4168
  18   2.0000     -10.046030      -273.3664
  19   2.0000     -10.041924      -273.2547
  20   2.0000      -1.015588       -27.6356
  21   2.0000      -1.011226       -27.5169
  22   2.0000      -0.991201       -26.9719
  23   2.0000      -0.923663       -25.1341
  24   2.0000      -0.851133       -23.1605
  25   2.0000      -0.832884       -22.6639
  26   2.0000      -0.773113       -21.0375
  27   2.0000      -0.745341       -20.2818
  28   2.0000      -0.736972       -20.0540
  29   2.0000      -0.730225       -19.8704
  30   2.0000      -0.693117       -18.8607
  31   2.0000      -0.651498       -17.7282
  32   2.0000      -0.627597       -17.0778
  33   2.0000      -0.612148       -16.6574
  34   2.0000      -0.591132       -16.0855
  35   2.0000      -0.567156       -15.4331
  36   2.0000      -0.552263       -15.0278
  37   2.0000      -0.519872       -14.1464
  38   2.0000      -0.513997       -13.9866
  39   2.0000      -0.495473       -13.4825
  40   2.0000      -0.481882       -13.1127
  41   2.0000      -0.463045       -12.6001
  42   2.0000      -0.461179       -12.5493
  43   2.0000      -0.443735       -12.0747
  44   2.0000      -0.437511       -11.9053
  45   2.0000      -0.425757       -11.5854
  46   2.0000      -0.423250       -11.5172
  47   2.0000      -0.414860       -11.2889
  48   2.0000      -0.406272       -11.0552
  49   2.0000      -0.404130       -10.9969
  50   2.0000      -0.398858       -10.8535
  51   2.0000      -0.395265       -10.7557
  52   2.0000      -0.387224       -10.5369
  53   2.0000      -0.380214       -10.3461
  54   2.0000      -0.367407        -9.9976
  55   2.0000      -0.360566        -9.8115
  56   2.0000      -0.347684        -9.4610
  57   2.0000      -0.342818        -9.3286
  58   2.0000      -0.337355        -9.1799
  59   2.0000      -0.328757        -8.9459
  60   2.0000      -0.321996        -8.7620
  61   2.0000      -0.309246        -8.4150
  62   2.0000      -0.290569        -7.9068
  63   2.0000      -0.264560        -7.1990
  64   2.0000      -0.251863        -6.8535
  65   2.0000      -0.250860        -6.8263
  66   2.0000      -0.246620        -6.7109
  67   2.0000      -0.244213        -6.6454
  68   2.0000      -0.230780        -6.2798
  69   2.0000      -0.194846        -5.3020
  70   0.0000      -0.133468        -3.6319
  71   0.0000      -0.080098        -2.1796
  72   0.0000      -0.048756        -1.3267
  73   0.0000      -0.027544        -0.7495
  74   0.0000       0.023930         0.6512

MULLIKEN ATOMIC CHARGES
-----------------------
   0 C :   -0.169689
   1 C :   -0.159032
   2 C :   -0.238666
   3 C :    0.194931
   4 C :    0.133164
   5 C :   -0.228988
   6 C :    0.083472
   7 O :   -0.441947
   8 C :    0.179773
   9 C :   -0.253984
  10 C :   -0.173774
  11 C :   -0.322924
  12 C :    0.288179
  13 C :   -0.129845
  14 C :    0.046237
  15 O :   -0.509326
  16 N :   -0.085826
  17 C :   -0.241152
  18 C :   -0.131139
  19 O :   -0.493944
  20 H :    0.185282
  21 H :    0.185493
  22 H :    0.197379
  23 H :    0.195820
  24 H :    0.197410
  25 H :    0.184146
  26 H :    0.179281
  27 H :    0.345160
  28 H :    0.161305
  29 H :    0.178473
  30 H :    0.150604
  31 H :    0.145592
  32 H :    0.348536
Sum of atomic charges:    0.0000000

LOEWDIN ATOMIC CHARGES
----------------------
   0 C :   -0.139542
   1 C :   -0.132408
   2 C :   -0.108655
   3 C :   -0.027075
   4 C :   -0.042386
   5 C :   -0.102184
   6 C :    0.276255
   7 O :   -0.549970
   8 C :   -0.032474
   9 C :   -0.126832
  10 C :   -0.125275
  11 C :   -0.120426
  12 C :    0.203249
  13 C :   -0.041081
  14 C :    0.269823
  15 O :   -0.585990
  16 N :   -0.658573
  17 C :   -0.006565
  18 C :    0.040750
  19 O :   -0.644744
  20 H :    0.184237
  21 H :    0.184458
  22 H :    0.196685
  23 H :    0.194916
  24 H :    0.195804
  25 H :    0.186103
  26 H :    0.190318
  27 H :    0.299358
  28 H :    0.197581
  29 H :    0.193968
  30 H :    0.171893
  31 H :    0.171308
  32 H :    0.287473

  Mayer bond orders larger than 0.100000
B(  0-C ,  1-C ) :   1.3101 B(  0-C ,  5-C ) :   1.3549 B(  0-C , 20-H ) :   0.9603
B(  1-C ,  2-C ) :   1.3408 B(  1-C , 21-H ) :   0.9603 B(  2-C ,  3-C ) :   1.2980
B(  2-C , 15-O ) :   0.1006 B(  2-C , 22-H ) :   0.9716 B(  3-C ,  4-C ) :   1.5043
B(  3-C , 14-C ) :   0.9219 B(  3-C , 15-O ) :  -0.1975 B(  4-C ,  5-C ) :   1.2875
B(  4-C ,  6-C ) :   0.8719 B(  4-C ,  7-O ) :  -0.2216 B(  5-C ,  7-O ) :   0.1043
B(  5-C , 23-H ) :   0.9737 B(  6-C ,  7-O ) :   2.0560 B(  6-C ,  8-C ) :   0.8800
B(  7-O ,  8-C ) :  -0.2138 B(  7-O ,  9-C ) :   0.1227 B(  8-C ,  9-C ) :   1.3390
B(  8-C , 13-C ) :   1.2509 B(  9-C , 10-C ) :   1.2310 B(  9-C , 24-H ) :   0.9781
B( 10-C , 11-C ) :   1.3999 B( 10-C , 25-H ) :   0.9744 B( 11-C , 12-C ) :   1.1036
B( 11-C , 26-H ) :   0.9599 B( 12-C , 13-C ) :   1.2435 B( 12-C , 16-N ) :   1.2840
B( 13-C , 14-C ) :   0.9744 B( 13-C , 15-O ) :  -0.1120 B( 14-C , 15-O ) :   1.8381
B( 16-N , 17-C ) :   0.8547 B( 16-N , 27-H ) :   0.8241 B( 17-C , 18-C ) :   0.9695
B( 17-C , 28-H ) :   0.9506 B( 17-C , 29-H ) :   0.9398 B( 18-C , 19-O ) :   0.9122
B( 18-C , 30-H ) :   0.9597 B( 18-C , 31-H ) :   0.9571 B( 19-O , 32-H ) :   0.8736

Dispersion correction           -0.015607578
FINAL SINGLE POINT ENERGY      -897.803654350220

DIPOLE MOMENT
-------------

Method             : SCF
Type of density    : Electron Density
Multiplicity       :   1
Irrep              :   0
Energy             :  -897.8043752328235314 Eh
Relativity type    :
Basis              : AO
                                X                 Y                 Z
Electronic contribution:    -10.524910972       3.925770445      -0.579714303
Nuclear contribution   :     12.646601140      -5.342124705       0.379979091
                        -----------------------------------------
Total Dipole Moment    :      2.121690168      -1.416354260      -0.199735212
                        -----------------------------------------
Magnitude (a.u.)       :      2.558812755
Magnitude (Debye)      :      6.503985143

Rotational constants in cm-1:             0.019467             0.008102             0.006047
Rotational constants in MHz :           583.613629           242.885601           181.279073

                             ****ORCA TERMINATED NORMALLY****
TOTAL RUN TIME: 0 days 0 hours 2 minutes 37 seconds 65 msec
