                         Program Version 6.0.0  -   RELEASE  -
|  1> ! r2scan-3c def2/J RI DEFGRID2 scfconv6 printgap
|  2> %output
|  3>     printlevel normal
|  4> end
|  5> * xyz 0 1
|  6> C 2.2715857646 1.109655649 0.2185991146
|  7> C 1.2289196907 -0.0117449266 0.2807805939
|  8> C 1.7780773066 -1.2669875441 -0.4065434004
|  9> N -0.0093137507 0.4803869125 -0.3072700517
| 10> C -1.2641997999 0.1330925416 0.3324342842
| 11> C -1.6370411694 -1.3560590271 0.2646134661
| 12> C -2.3690558925 0.9775452765 -0.3025489836
| 13> H 1.8890302391 1.9968302778 0.7142266985
| 14> H 3.1926032302 0.8001354447 0.7050232558
| 15> H 2.4865078217 1.3597435099 -0.8169586369
| 16> H 1.0289473476 -0.2388018596 1.3350816716
| 17> H 2.0189000188 -1.0446630133 -1.4445932254
| 18> H 1.0540255717 -2.0775204506 -0.385537668
| 19> H 2.6840584806 -1.6020980229 0.0921702698
| 20> H -0.0435300286 0.2614128686 -1.2965977044
| 21> H -1.1655161766 0.4201615596 1.3874221346
| 22> H -2.6174529798 -1.5139066154 0.7066517579
| 23> H -1.6665095398 -1.6899783435 -0.7712552153
| 24> H -0.916902953 -1.962182625 0.8093640331
| 25> H -2.5185124364 0.6826787626 -1.3387419006
| 26> H -2.0915962194 2.0270314171 -0.2774651755
| 27> H -3.3033618622 0.8447749889 0.2354986717
| 28> *
| 29>
| 30>                          ****END OF INPUT****

CARTESIAN COORDINATES (ANGSTROEM)
---------------------------------
  C      2.271586    1.109656    0.218599
  C      1.228920   -0.011745    0.280781
  C      1.778077   -1.266988   -0.406543
  N     -0.009314    0.480387   -0.307270
  C     -1.264200    0.133093    0.332434
  C     -1.637041   -1.356059    0.264613
  C     -2.369056    0.977545   -0.302549
  H      1.889030    1.996830    0.714227
  H      3.192603    0.800135    0.705023
  H      2.486508    1.359744   -0.816959
  H      1.028947   -0.238802    1.335082
  H      2.018900   -1.044663   -1.444593
  H      1.054026   -2.077520   -0.385538
  H      2.684058   -1.602098    0.092170
  H     -0.043530    0.261413   -1.296598
  H     -1.165516    0.420162    1.387422
  H     -2.617453   -1.513907    0.706652
  H     -1.666510   -1.689978   -0.771255
  H     -0.916903   -1.962183    0.809364
  H     -2.518512    0.682679   -1.338742
  H     -2.091596    2.027031   -0.277465
  H     -3.303362    0.844775    0.235499

 Total Charge           Charge          ....    0
 Multiplicity           Mult            ....    1
 Number of Electrons    NEL             ....   58
 Basis Dimension        Dim             ....  213

ORBITAL ENERGIES
----------------

  NO   OCC          E(Eh)            E(eV)
   0   2.0000     -14.129675      -384.4880
   1   2.0000     -10.055824      -273.6329
   2   2.0000     -10.055324      -273.6193
   3   2.0000     -10.014942      -272.5204
   4   2.0000     -10.013077      -272.4697
   5   2.0000     -10.011386      -272.4237
   6   2.0000     -10.006314      -272.2856
   7   2.0000      -0.869903       -23.6713
   8   2.0000      -0.751261       -20.4428
   9   2.0000      -0.692101       -18.8330
  10   2.0000      -0.650459       -17.6999
  11   2.0000      -0.644788       -17.5456
  12   2.0000      -0.550907       -14.9910
  13   2.0000      -0.547413       -14.8959
  14   2.0000      -0.446218       -12.1422
  15   2.0000      -0.433359       -11.7923
  16   2.0000      -0.400771       -10.9055
  17   2.0000      -0.390837       -10.6352
  18   2.0000      -0.390079       -10.6146
  19   2.0000      -0.366552        -9.9744
  20   2.0000      -0.356269        -9.6946
  21   2.0000      -0.351623        -9.5681
  22   2.0000      -0.348982        -9.4963
  23   2.0000      -0.319196        -8.6858
  24   2.0000      -0.316943        -8.6244
  25   2.0000      -0.301467        -8.2033
  26   2.0000      -0.299319        -8.1449
  27   2.0000      -0.289675        -7.8824
  28   2.0000      -0.178251        -4.8505
  29   0.0000       0.081535         2.2187
  30   0.0000       0.099397         2.7047
  31   0.0000       0.111623         3.0374
  32   0.0000       0.116397         3.1673
  33   0.0000       0.133868         3.6427

MULLIKEN ATOMIC CHARGES
-----------------------
   0 C :   -0.457084
   1 C :   -0.050830
   2 C :   -0.483569
   3 N :   -0.237514
   4 C :   -0.087914
   5 C :   -0.467001
   6 C :   -0.475784
   7 H :    0.153207
   8 H :    0.136355
   9 H :    0.142815
  10 H :    0.132860
  11 H :    0.145157
  12 H :    0.151624
  13 H :    0.147173
  14 H :    0.220745
  15 H :    0.146417
  16 H :    0.142210
  17 H :    0.148650
  18 H :    0.148419
  19 H :    0.139422
  20 H :    0.162746
  21 H :    0.141897
Sum of atomic charges:    0.0000000

LOEWDIN ATOMIC CHARGES
----------------------
   0 C :   -0.390678
   1 C :   -0.017414
   2 C :   -0.402384
   3 N :   -0.828674
   4 C :   -0.018271
   5 C :   -0.409019
   6 C :   -0.386626
   7 H :    0.159073
   8 H :    0.148184
   9 H :    0.154426
  10 H :    0.176875
  11 H :    0.152726
  12 H :    0.154856
  13 H :    0.154540
  14 H :    0.249589
  15 H :    0.175762
  16 H :    0.153517
  17 H :    0.153569
  18 H :    0.152553
  19 H :    0.152201
  20 H :    0.162604
  21 H :    0.152591

  Mayer bond orders larger than 0.100000
B(  0-C ,  1-C ) :   0.9825 B(  0-C ,  7-H ) :   0.9713 B(  0-C ,  8-H ) :   0.9838
B(  0-C ,  9-H ) :   0.9722 B(  1-C ,  2-C ) :   0.9268 B(  1-C ,  3-N ) :   0.8131
B(  1-C , 10-H ) :   0.9488 B(  2-C , 11-H ) :   0.9778 B(  2-C , 12-H ) :   0.9661
B(  2-C , 13-H ) :   0.9781 B(  3-N ,  4-C ) :   0.9371 B(  3-N , 14-H ) :   0.9182
B(  4-C ,  5-C ) :   0.8602 B(  4-C ,  6-C ) :   0.9639 B(  4-C , 15-H ) :   0.9732
B(  5-C , 16-H ) :   0.9705 B(  5-C , 17-H ) :   0.9757 B(  5-C , 18-H ) :   0.9715
B(  6-C , 19-H ) :   0.9737 B(  6-C , 20-H ) :   0.9729 B(  6-C , 21-H ) :   0.9787

Dispersion correction           -0.005968863
FINAL SINGLE POINT ENERGY      -292.316840165972

DIPOLE MOMENT
-------------

Method             : SCF
Type of density    : Electron Density
Multiplicity       :   1
Irrep              :   0
Energy             :  -292.3252233151477526 Eh
Relativity type    :
Basis              : AO
                                X                 Y                 Z
Electronic contribution:     -0.074566808       1.312289032       0.320896947
Nuclear contribution   :      0.028741790      -1.626383306      -0.326012334
                        -----------------------------------------
Total Dipole Moment    :     -0.045825018      -0.314094274      -0.005115387
                        -----------------------------------------
Magnitude (a.u.)       :      0.317460725
Magnitude (Debye)      :      0.806921037

Rotational constants in cm-1:             0.138707             0.051797             0.041662
Rotational constants in MHz :          4158.322746          1552.833309          1248.996677

                             ****ORCA TERMINATED NORMALLY****
TOTAL RUN TIME: 0 days 0 hours 0 minutes 25 seconds 650 msec
