                         Program Version 6.0.0  -   RELEASE  -
|  1> ! r2scan-3c def2/J RI DEFGRID2 scfconv6 printgap
|  2> %output
|  3>     printlevel normal
|  4> end
|  5> %cpcm
|  6>     smd true
|  7>     smdsolvent "water"
|  8> end
|  9> * xyz 0 1
| 10> C 2.2715857646 1.109655649 0.2185991146
| 11> C 1.2289196907 -0.0117449266 0.2807805939
| 12> C 1.7780773066 -1.2669875441 -0.4065434004
| 13> N -0.0093137507 0.4803869125 -0.3072700517
| 14> C -1.2641997999 0.1330925416 0.3324342842
| 15> C -1.6370411694 -1.3560590271 0.2646134661
| 16> C -2.3690558925 0.9775452765 -0.3025489836
| 17> H 1.8890302391 1.9968302778 0.7142266985
| 18> H 3.1926032302 0.8001354447 0.7050232558
| 19> H 2.4865078217 1.3597435099 -0.8169586369
| 20> H 1.0289473476 -0.2388018596 1.3350816716
| 21> H 2.0189000188 -1.0446630133 -1.4445932254
| 22> H 1.0540255717 -2.0775204506 -0.385537668
| 23> H 2.6840584806 -1.6020980229 0.0921702698
| 24> H -0.0435300286 0.2614128686 -1.2965977044
| 25> H -1.1655161766 0.4201615596 1.3874221346
| 26> H -2.6174529798 -1.5139066154 0.7066517579
| 27> H -1.6665095398 -1.6899783435 -0.7712552153
| 28> H -0.916902953 -1.962182625 0.8093640331
| 29> H -2.5185124364 0.6826787626 -1.3387419006
| 30> H -2.0915962194 2.0270314171 -0.2774651755
| 31> H -3.3033618622 0.8447749889 0.2354986717
| 32> *
| 33>
| 34>                          ****END OF INPUT****

CARTESIAN COORDINATES (ANGSTROEM)
---------------------------------
  C      2.271586    1.109656    0.218599
  C      1.228920   -0.011745    0.280781
  C      1.778077   -1.266988   -0.406543
  N     -0.009314    0.480387   -0.307270
  C     -1.264200    0.133093    0.332434
  C     -1.637041   -1.356059    0.264613
  C     -2.369056    0.977545   -0.302549
  H      1.889030    1.996830    0.714227
  H      3.192603    0.800135    0.705023
  H      2.486508    1.359744   -0.816959
  H      1.028947   -0.238802    1.335082
  H      2.018900   -1.044663   -1.444593
  H      1.054026   -2.077520   -0.385538
  H      2.684058   -1.602098    0.092170
  H     -0.043530    0.261413   -1.296598
  H     -1.165516    0.420162    1.387422
  H     -2.617453   -1.513907    0.706652
  H     -1.666510   -1.689978   -0.771255
  H     -0.916903   -1.962183    0.809364
  H     -2.518512    0.682679   -1.338742
  H     -2.091596    2.027031   -0.277465
  H     -3.303362    0.844775    0.235499

 Total Charge           Charge          ....    0
 Multiplicity           Mult            ....    1
 Number of Electrons    NEL             ....   58
 Basis Dimension        Dim             ....  213

ORBITAL ENERGIES
----------------

  NO   OCC          E(Eh)            E(eV)
   0   2.0000     -14.123802      -384.3282
   1   2.0000     -10.049337      -273.4564
   2   2.0000     -10.048799      -273.4417
   3   2.0000     -10.005299      -272.2580
   4   2.0000     -10.005112      -272.2529
   5   2.0000     -10.003651      -272.2132
   6   2.0000     -10.002545      -272.1831
   7   2.0000      -0.863974       -23.5099
   8   2.0000      -0.744655       -20.2631
   9   2.0000      -0.685174       -18.6445
  10   2.0000      -0.644325       -17.5330
  11   2.0000      -0.638335       -17.3700
  12   2.0000      -0.544643       -14.8205
  13   2.0000      -0.540121       -14.6974
  14   2.0000      -0.438854       -11.9418
  15   2.0000      -0.427046       -11.6205
  16   2.0000      -0.394842       -10.7442
  17   2.0000      -0.383984       -10.4487
  18   2.0000      -0.383051       -10.4234
  19   2.0000      -0.359578        -9.7846
  20   2.0000      -0.349524        -9.5110
  21   2.0000      -0.344685        -9.3794
  22   2.0000      -0.341016        -9.2795
  23   2.0000      -0.312939        -8.5155
  24   2.0000      -0.311313        -8.4713
  25   2.0000      -0.293494        -7.9864
  26   2.0000      -0.292534        -7.9603
  27   2.0000      -0.282869        -7.6973
  28   2.0000      -0.176521        -4.8034
  29   0.0000       0.089850         2.4449
  30   0.0000       0.113323         3.0837
  31   0.0000       0.119669         3.2564
  32   0.0000       0.124169         3.3788
  33   0.0000       0.138040         3.7563

MULLIKEN ATOMIC CHARGES
-----------------------
   0 C :   -0.528180
   1 C :   -0.010439
   2 C :   -0.526646
   3 N :   -0.312766
   4 C :   -0.055960
   5 C :   -0.519406
   6 C :   -0.522285
   7 H :    0.155538
   8 H :    0.152204
   9 H :    0.159806
  10 H :    0.149723
  11 H :    0.160018
  12 H :    0.160027
  13 H :    0.159097
  14 H :    0.268836
  15 H :    0.157704
  16 H :    0.153772
  17 H :    0.162714
  18 H :    0.161023
  19 H :    0.159440
  20 H :    0.157927
  21 H :    0.157852
Sum of atomic charges:    0.0000000

LOEWDIN ATOMIC CHARGES
----------------------
   0 C :   -0.403240
   1 C :   -0.015714
   2 C :   -0.408025
   3 N :   -0.844535
   4 C :   -0.017666
   5 C :   -0.415078
   6 C :   -0.396247
   7 H :    0.156227
   8 H :    0.153288
   9 H :    0.156762
  10 H :    0.181899
  11 H :    0.157076
  12 H :    0.157446
  13 H :    0.157279
  14 H :    0.258784
  15 H :    0.178615
  16 H :    0.156181
  17 H :    0.157394
  18 H :    0.156242
  19 H :    0.157525
  20 H :    0.158616
  21 H :    0.157173

  Mayer bond orders larger than 0.100000
B(  0-C ,  1-C ) :   0.9506 B(  0-C ,  7-H ) :   0.9734 B(  0-C ,  8-H ) :   0.9789
B(  0-C ,  9-H ) :   0.9757 B(  1-C ,  2-C ) :   0.9162 B(  1-C ,  3-N ) :   0.8073
B(  1-C , 10-H ) :   0.9505 B(  2-C , 11-H ) :   0.9757 B(  2-C , 12-H ) :   0.9638
B(  2-C , 13-H ) :   0.9761 B(  3-N ,  4-C ) :   0.9442 B(  3-N , 14-H ) :   0.9025
B(  4-C ,  5-C ) :   0.8565 B(  4-C ,  6-C ) :   0.9407 B(  4-C , 15-H ) :   0.9721
B(  5-C , 16-H ) :   0.9686 B(  5-C , 17-H ) :   0.9757 B(  5-C , 18-H ) :   0.9678
B(  6-C , 19-H ) :   0.9733 B(  6-C , 20-H ) :   0.9732 B(  6-C , 21-H ) :   0.9751

Dispersion correction           -0.005968863
FINAL SINGLE POINT ENERGY      -292.318769851779

DIPOLE MOMENT
-------------

Method             : SCF
Type of density    : Electron Density
Multiplicity       :   1
Irrep              :   0
Energy             :  -292.3271530009550361 Eh
Relativity type    :
Basis              : AO
                                X                 Y                 Z
Electronic contribution:     -0.082874051       1.098626727       0.300939108
Nuclear contribution   :      0.028741790      -1.626383306      -0.326012334
                        -----------------------------------------
Total Dipole Moment    :     -0.054132261      -0.527756579      -0.025073226
                        -----------------------------------------
Magnitude (a.u.)       :      0.531117666
Magnitude (Debye)      :      1.349993821

Rotational constants in cm-1:             0.138707             0.051797             0.041662
Rotational constants in MHz :          4158.322746          1552.833309          1248.996677

                             ****ORCA TERMINATED NORMALLY****
TOTAL RUN TIME: 0 days 0 hours 0 minutes 32 seconds 945 msec
