                         Program Version 6.0.0  -   RELEASE  -
|  1> ! pbe def2-sv(p) def2/J RI DEFGRID1 loosescf d4 GCP(DFT/SV(P)) printgap
|  2> %output
|  3>     printlevel normal
|  4> end
|  5> * xyz 0 1
|  6> C -3.3530641265 -0.2514136876 0.9395185179
|  7> C -2.8141252518 -0.168632647 -0.4844565604
|  8> C -1.4189143829 0.4499545611 -0.5623669457
|  9> C -0.3496542743 -0.4159947509 0.0982743541
| 10> C 1.036446785 0.1247003223 -0.1280505858
| 11> O 1.3175307021 1.1024486005 -0.7870435523
| 12> O 1.9515813776 -0.6191019896 0.4914390521
| 13> C 3.3207885082 -0.2279132465 0.359277989
| 14> H -3.3340927164 0.7291939465 1.4093771438
| 15> H -4.3803226472 -0.607021429 0.930955517
| 16> H -2.763936447 -0.9363095514 1.5429269048
| 17> H -2.7914128536 -1.1675891836 -0.9242126016
| 18> H -3.4922595772 0.4412481945 -1.0841738037
| 19> H -1.4247371875 1.4341256904 -0.0899925573
| 20> H -1.1453489253 0.5978880949 -1.6091838219
| 21> H -0.3759699053 -1.4319331233 -0.301647085
| 22> H -0.5028493538 -0.4856924123 1.1757330171
| 23> H 3.4849973774 0.7254324872 0.8626569695
| 24> H 3.5791267542 -0.1218452604 -0.6949460351
| 25> H 3.8976784344 -1.0192278737 0.8270437542
| 26> *
| 27>
| 28>                          ****END OF INPUT****

CARTESIAN COORDINATES (ANGSTROEM)
---------------------------------
  C     -3.353064   -0.251414    0.939519
  C     -2.814125   -0.168633   -0.484457
  C     -1.418914    0.449955   -0.562367
  C     -0.349654   -0.415995    0.098274
  C      1.036447    0.124700   -0.128051
  O      1.317531    1.102449   -0.787044
  O      1.951581   -0.619102    0.491439
  C      3.320789   -0.227913    0.359278
  H     -3.334093    0.729194    1.409377
  H     -4.380323   -0.607021    0.930956
  H     -2.763936   -0.936310    1.542927
  H     -2.791413   -1.167589   -0.924213
  H     -3.492260    0.441248   -1.084174
  H     -1.424737    1.434126   -0.089993
  H     -1.145349    0.597888   -1.609184
  H     -0.375970   -1.431933   -0.301647
  H     -0.502849   -0.485692    1.175733
  H      3.484997    0.725432    0.862657
  H      3.579127   -0.121845   -0.694946
  H      3.897678   -1.019228    0.827044

 Total Charge           Charge          ....    0
 Multiplicity           Mult            ....    1
 Number of Electrons    NEL             ....   64
 Basis Dimension        Dim             ....  136

ORBITAL ENERGIES
----------------

  NO   OCC          E(Eh)            E(eV)
   0   2.0000     -18.797083      -511.4946
   1   2.0000     -18.733544      -509.7657
   2   2.0000     -10.005030      -272.2507
   3   2.0000      -9.940990      -270.5081
   4   2.0000      -9.898126      -269.3417
   5   2.0000      -9.884734      -268.9773
   6   2.0000      -9.883950      -268.9559
   7   2.0000      -9.875584      -268.7283
   8   2.0000      -1.003715       -27.3125
   9   2.0000      -0.909251       -24.7420
  10   2.0000      -0.729467       -19.8498
  11   2.0000      -0.685268       -18.6471
  12   2.0000      -0.644040       -17.5252
  13   2.0000      -0.583591       -15.8803
  14   2.0000      -0.518557       -14.1106
  15   2.0000      -0.495395       -13.4804
  16   2.0000      -0.451588       -12.2883
  17   2.0000      -0.443495       -12.0681
  18   2.0000      -0.416085       -11.3222
  19   2.0000      -0.408715       -11.1217
  20   2.0000      -0.395040       -10.7496
  21   2.0000      -0.380519       -10.3544
  22   2.0000      -0.359714        -9.7883
  23   2.0000      -0.349204        -9.5023
  24   2.0000      -0.337497        -9.1838
  25   2.0000      -0.316747        -8.6191
  26   2.0000      -0.305072        -8.3014
  27   2.0000      -0.289155        -7.8683
  28   2.0000      -0.287033        -7.8106
  29   2.0000      -0.284459        -7.7405
  30   2.0000      -0.256841        -6.9890
  31   2.0000      -0.219137        -5.9630
  32   0.0000      -0.018247        -0.4965
  33   0.0000       0.035087         0.9548
  34   0.0000       0.057608         1.5676
  35   0.0000       0.069555         1.8927
  36   0.0000       0.072010         1.9595

MULLIKEN ATOMIC CHARGES
-----------------------
   0 C :   -0.295706
   1 C :   -0.154483
   2 C :   -0.169423
   3 C :   -0.193584
   4 C :    0.124925
   5 O :   -0.208331
   6 O :   -0.243941
   7 C :   -0.107223
   8 H :    0.099340
   9 H :    0.104079
  10 H :    0.106929
  11 H :    0.080535
  12 H :    0.087139
  13 H :    0.091108
  14 H :    0.097333
  15 H :    0.108597
  16 H :    0.115720
  17 H :    0.117256
  18 H :    0.119499
  19 H :    0.120231
Sum of atomic charges:    0.0000000

LOEWDIN ATOMIC CHARGES
----------------------
   0 C :   -0.343755
   1 C :   -0.233243
   2 C :   -0.223296
   3 C :   -0.252315
   4 C :    0.037655
   5 O :   -0.163675
   6 O :   -0.081148
   7 C :   -0.203036
   8 H :    0.117663
   9 H :    0.120212
  10 H :    0.115359
  11 H :    0.113204
  12 H :    0.117612
  13 H :    0.119989
  14 H :    0.122929
  15 H :    0.139482
  16 H :    0.138605
  17 H :    0.118518
  18 H :    0.119306
  19 H :    0.119935

  Mayer bond orders larger than 0.100000
B(  0-C ,  1-C ) :   1.1454 B(  0-C ,  8-H ) :   0.9553 B(  0-C ,  9-H ) :   0.9518
B(  0-C , 10-H ) :   0.9527 B(  1-C ,  2-C ) :   1.1231 B(  1-C , 11-H ) :   0.9248
B(  1-C , 12-H ) :   0.9279 B(  2-C ,  3-C ) :   1.1300 B(  2-C , 13-H ) :   0.9231
B(  2-C , 14-H ) :   0.9202 B(  3-C ,  4-C ) :   1.0197 B(  3-C , 15-H ) :   0.8949
B(  3-C , 16-H ) :   0.8930 B(  4-C ,  5-O ) :   2.0541 B(  4-C ,  6-O ) :   1.2154
B(  6-O ,  7-C ) :   0.9410 B(  7-C , 17-H ) :   0.9551 B(  7-C , 18-H ) :   0.9496
B(  7-C , 19-H ) :   0.9598

Dispersion correction           -0.014771471
FINAL SINGLE POINT ENERGY      -385.452875552343

DIPOLE MOMENT
-------------

Method             : SCF
Type of density    : Electron Density
Multiplicity       :   1
Irrep              :   0
Energy             :  -385.5279909720635487 Eh
Relativity type    :
Basis              : AO
                                X                 Y                 Z
Electronic contribution:      8.755910222       1.191703159      -1.543794308
Nuclear contribution   :     -8.628748049      -1.720683004       1.913733632
                        -----------------------------------------
Total Dipole Moment    :      0.127162173      -0.528979845       0.369939324
                        -----------------------------------------
Magnitude (a.u.)       :      0.657909567
Magnitude (Debye)      :      1.672273221

Rotational constants in cm-1:             0.192003             0.027664             0.025402
Rotational constants in MHz :          5756.116954           829.354025           761.530989

                             ****ORCA TERMINATED NORMALLY****
TOTAL RUN TIME: 0 days 0 hours 0 minutes 10 seconds 636 msec
