                         Program Version 6.0.0  -   RELEASE  -
|  1> ! r2scan-3c def2/J RI DEFGRID2 scfconv6 printgap
|  2> %output
|  3>     printlevel normal
|  4> end
|  5> * xyz 0 1
|  6> C -3.4134568335 -1.0032886585 0.2838251497
|  7> C -2.0611676683 -0.6435819138 -0.3180550988
|  8> C -1.3108286916 0.3631973839 0.5671739429
|  9> C 0.0055580057 0.7027607122 -0.0767780111
| 10> O 0.1884854158 1.6287413387 -0.8416325733
| 11> O 0.9527413879 -0.1592630536 0.2609406406
| 12> C 2.2595987746 0.0085028901 -0.3147877401
| 13> C 3.2335133739 -0.8598960633 0.4580722841
| 14> H -3.9294008015 -1.7150190171 -0.3547131504
| 15> H -3.2856599958 -1.4489738843 1.2667542832
| 16> H -4.0338807545 -0.1165040924 0.3841047977
| 17> H -2.2003899732 -0.2086137112 -1.3100618872
| 18> H -1.4531654011 -1.5437999057 -0.4251215348
| 19> H -1.1261068656 -0.0764871218 1.5463301308
| 20> H -1.8978599107 1.2757623263 0.6661715335
| 21> H 2.2086235548 -0.2822538445 -1.3690571405
| 22> H 2.5263742108 1.0692980172 -0.264780762
| 23> H 4.2247624371 -0.7568884242 0.0292761738
| 24> H 3.2600908575 -0.5547105658 1.5000073952
| 25> H 2.9251928176 -1.899720004 0.4054251456
| 26> *
| 27>
| 28>                          ****END OF INPUT****

CARTESIAN COORDINATES (ANGSTROEM)
---------------------------------
  C     -3.413457   -1.003289    0.283825
  C     -2.061168   -0.643582   -0.318055
  C     -1.310829    0.363197    0.567174
  C      0.005558    0.702761   -0.076778
  O      0.188485    1.628741   -0.841633
  O      0.952741   -0.159263    0.260941
  C      2.259599    0.008503   -0.314788
  C      3.233513   -0.859896    0.458072
  H     -3.929401   -1.715019   -0.354713
  H     -3.285660   -1.448974    1.266754
  H     -4.033881   -0.116504    0.384105
  H     -2.200390   -0.208614   -1.310062
  H     -1.453165   -1.543800   -0.425122
  H     -1.126107   -0.076487    1.546330
  H     -1.897860    1.275762    0.666172
  H      2.208624   -0.282254   -1.369057
  H      2.526374    1.069298   -0.264781
  H      4.224762   -0.756888    0.029276
  H      3.260091   -0.554711    1.500007
  H      2.925193   -1.899720    0.405425

 Total Charge           Charge          ....    0
 Multiplicity           Mult            ....    1
 Number of Electrons    NEL             ....   64
 Basis Dimension        Dim             ....  222

ORBITAL ENERGIES
----------------

  NO   OCC          E(Eh)            E(eV)
   0   2.0000     -18.995472      -516.8931
   1   2.0000     -18.925022      -514.9760
   2   2.0000     -10.149211      -276.1741
   3   2.0000     -10.090962      -274.5890
   4   2.0000     -10.039977      -273.2017
   5   2.0000     -10.038713      -273.1673
   6   2.0000     -10.031801      -272.9792
   7   2.0000     -10.023445      -272.7518
   8   2.0000      -1.070686       -29.1348
   9   2.0000      -0.972044       -26.4507
  10   2.0000      -0.775563       -21.1041
  11   2.0000      -0.743056       -20.2196
  12   2.0000      -0.681073       -18.5330
  13   2.0000      -0.613990       -16.7075
  14   2.0000      -0.567867       -15.4524
  15   2.0000      -0.533959       -14.5298
  16   2.0000      -0.468522       -12.7491
  17   2.0000      -0.457669       -12.4538
  18   2.0000      -0.445248       -12.1158
  19   2.0000      -0.422833       -11.5059
  20   2.0000      -0.405604       -11.0370
  21   2.0000      -0.385659       -10.4943
  22   2.0000      -0.376423       -10.2430
  23   2.0000      -0.363354        -9.8874
  24   2.0000      -0.357090        -9.7169
  25   2.0000      -0.342569        -9.3218
  26   2.0000      -0.327191        -8.9033
  27   2.0000      -0.312537        -8.5046
  28   2.0000      -0.310130        -8.4391
  29   2.0000      -0.307877        -8.3778
  30   2.0000      -0.269689        -7.3386
  31   2.0000      -0.230572        -6.2742
  32   0.0000      -0.013155        -0.3580
  33   0.0000       0.074771         2.0346
  34   0.0000       0.095161         2.5895
  35   0.0000       0.105058         2.8588
  36   0.0000       0.121224         3.2987

MULLIKEN ATOMIC CHARGES
-----------------------
   0 C :   -0.472989
   1 C :   -0.231439
   2 C :   -0.343200
   3 C :    0.410418
   4 O :   -0.426071
   5 O :   -0.171781
   6 C :   -0.150266
   7 C :   -0.441669
   8 H :    0.150614
   9 H :    0.144468
  10 H :    0.146371
  11 H :    0.154575
  12 H :    0.147058
  13 H :    0.155140
  14 H :    0.162140
  15 H :    0.149299
  16 H :    0.166316
  17 H :    0.146952
  18 H :    0.152778
  19 H :    0.151285
Sum of atomic charges:   -0.0000000

LOEWDIN ATOMIC CHARGES
----------------------
   0 C :   -0.419437
   1 C :   -0.287671
   2 C :   -0.230152
   3 C :    0.353428
   4 O :   -0.428348
   5 O :   -0.599330
   6 C :    0.033740
   7 C :   -0.386796
   8 H :    0.153048
   9 H :    0.150578
  10 H :    0.151515
  11 H :    0.160785
  12 H :    0.158056
  13 H :    0.175828
  14 H :    0.177107
  15 H :    0.175767
  16 H :    0.184416
  17 H :    0.159422
  18 H :    0.159160
  19 H :    0.158883

  Mayer bond orders larger than 0.100000
B(  0-C ,  1-C ) :   0.8963 B(  0-C ,  8-H ) :   0.9720 B(  0-C ,  9-H ) :   0.9850
B(  0-C , 10-H ) :   0.9836 B(  1-C ,  2-C ) :   0.9283 B(  1-C , 11-H ) :   0.9589
B(  1-C , 12-H ) :   0.9628 B(  2-C ,  3-C ) :   0.9599 B(  2-C , 13-H ) :   0.9817
B(  2-C , 14-H ) :   0.9764 B(  3-C ,  4-O ) :   1.8270 B(  3-C ,  5-O ) :   1.0524
B(  5-O ,  6-C ) :   0.8019 B(  6-C ,  7-C ) :   0.9434 B(  6-C , 15-H ) :   0.9464
B(  6-C , 16-H ) :   0.9606 B(  7-C , 17-H ) :   0.9681 B(  7-C , 18-H ) :   0.9743
B(  7-C , 19-H ) :   0.9697

Dispersion correction           -0.004855944
FINAL SINGLE POINT ENERGY      -386.235484830515

DIPOLE MOMENT
-------------

Method             : SCF
Type of density    : Electron Density
Multiplicity       :   1
Irrep              :   0
Energy             :  -386.2422157227772459 Eh
Relativity type    :
Basis              : AO
                                X                 Y                 Z
Electronic contribution:      2.760773900       5.068573951      -1.530546015
Nuclear contribution   :     -2.592513153      -5.849173311       1.937461408
                        -----------------------------------------
Total Dipole Moment    :      0.168260747      -0.780599360       0.406915393
                        -----------------------------------------
Magnitude (a.u.)       :      0.896229422
Magnitude (Debye)      :      2.278034152

Rotational constants in cm-1:             0.136945             0.031178             0.027214
Rotational constants in MHz :          4105.499020           934.689726           815.840989

                             ****ORCA TERMINATED NORMALLY****
TOTAL RUN TIME: 0 days 0 hours 0 minutes 27 seconds 13 msec
