                         Program Version 6.0.0  -   RELEASE  -
|  1> ! r2scan-3c def2/J RI DEFGRID2 scfconv6 printgap
|  2> %output
|  3>     printlevel normal
|  4> end
|  5> %cpcm
|  6>     smd true
|  7>     smdsolvent "water"
|  8> end
|  9> * xyz 0 1
| 10> C -3.4134568335 -1.0032886585 0.2838251497
| 11> C -2.0611676683 -0.6435819138 -0.3180550988
| 12> C -1.3108286916 0.3631973839 0.5671739429
| 13> C 0.0055580057 0.7027607122 -0.0767780111
| 14> O 0.1884854158 1.6287413387 -0.8416325733
| 15> O 0.9527413879 -0.1592630536 0.2609406406
| 16> C 2.2595987746 0.0085028901 -0.3147877401
| 17> C 3.2335133739 -0.8598960633 0.4580722841
| 18> H -3.9294008015 -1.7150190171 -0.3547131504
| 19> H -3.2856599958 -1.4489738843 1.2667542832
| 20> H -4.0338807545 -0.1165040924 0.3841047977
| 21> H -2.2003899732 -0.2086137112 -1.3100618872
| 22> H -1.4531654011 -1.5437999057 -0.4251215348
| 23> H -1.1261068656 -0.0764871218 1.5463301308
| 24> H -1.8978599107 1.2757623263 0.6661715335
| 25> H 2.2086235548 -0.2822538445 -1.3690571405
| 26> H 2.5263742108 1.0692980172 -0.264780762
| 27> H 4.2247624371 -0.7568884242 0.0292761738
| 28> H 3.2600908575 -0.5547105658 1.5000073952
| 29> H 2.9251928176 -1.899720004 0.4054251456
| 30> *
| 31>
| 32>                          ****END OF INPUT****

CARTESIAN COORDINATES (ANGSTROEM)
---------------------------------
  C     -3.413457   -1.003289    0.283825
  C     -2.061168   -0.643582   -0.318055
  C     -1.310829    0.363197    0.567174
  C      0.005558    0.702761   -0.076778
  O      0.188485    1.628741   -0.841633
  O      0.952741   -0.159263    0.260941
  C      2.259599    0.008503   -0.314788
  C      3.233513   -0.859896    0.458072
  H     -3.929401   -1.715019   -0.354713
  H     -3.285660   -1.448974    1.266754
  H     -4.033881   -0.116504    0.384105
  H     -2.200390   -0.208614   -1.310062
  H     -1.453165   -1.543800   -0.425122
  H     -1.126107   -0.076487    1.546330
  H     -1.897860    1.275762    0.666172
  H      2.208624   -0.282254   -1.369057
  H      2.526374    1.069298   -0.264781
  H      4.224762   -0.756888    0.029276
  H      3.260091   -0.554711    1.500007
  H      2.925193   -1.899720    0.405425

 Total Charge           Charge          ....    0
 Multiplicity           Mult            ....    1
 Number of Electrons    NEL             ....   64
 Basis Dimension        Dim             ....  222

ORBITAL ENERGIES
----------------

  NO   OCC          E(Eh)            E(eV)
   0   2.0000     -19.002340      -517.0800
   1   2.0000     -18.942723      -515.4577
   2   2.0000     -10.161238      -276.5013
   3   2.0000     -10.083821      -274.3947
   4   2.0000     -10.034850      -273.0621
   5   2.0000     -10.030460      -272.9427
   6   2.0000     -10.018812      -272.6257
   7   2.0000     -10.012000      -272.4404
   8   2.0000      -1.079200       -29.3665
   9   2.0000      -0.987607       -26.8742
  10   2.0000      -0.770366       -20.9627
  11   2.0000      -0.735110       -20.0033
  12   2.0000      -0.674084       -18.3428
  13   2.0000      -0.607373       -16.5275
  14   2.0000      -0.559901       -15.2357
  15   2.0000      -0.533005       -14.5038
  16   2.0000      -0.470353       -12.7990
  17   2.0000      -0.459679       -12.5085
  18   2.0000      -0.446253       -12.1432
  19   2.0000      -0.425527       -11.5792
  20   2.0000      -0.402385       -10.9495
  21   2.0000      -0.380975       -10.3668
  22   2.0000      -0.365300        -9.9403
  23   2.0000      -0.360383        -9.8065
  24   2.0000      -0.348396        -9.4803
  25   2.0000      -0.336223        -9.1491
  26   2.0000      -0.321403        -8.7458
  27   2.0000      -0.312955        -8.5159
  28   2.0000      -0.304798        -8.2940
  29   2.0000      -0.300430        -8.1751
  30   2.0000      -0.276377        -7.5206
  31   2.0000      -0.248335        -6.7575
  32   0.0000      -0.022728        -0.6185
  33   0.0000       0.077634         2.1125
  34   0.0000       0.104461         2.8425
  35   0.0000       0.115707         3.1486
  36   0.0000       0.128296         3.4911

MULLIKEN ATOMIC CHARGES
-----------------------
   0 C :   -0.517342
   1 C :   -0.219007
   2 C :   -0.368119
   3 C :    0.454242
   4 O :   -0.513918
   5 O :   -0.186813
   6 C :   -0.151453
   7 C :   -0.489976
   8 H :    0.162473
   9 H :    0.159002
  10 H :    0.159074
  11 H :    0.157721
  12 H :    0.157447
  13 H :    0.176925
  14 H :    0.176633
  15 H :    0.172223
  16 H :    0.171808
  17 H :    0.168759
  18 H :    0.165854
  19 H :    0.164466
Sum of atomic charges:   -0.0000000

LOEWDIN ATOMIC CHARGES
----------------------
   0 C :   -0.424766
   1 C :   -0.285248
   2 C :   -0.228218
   3 C :    0.362980
   4 O :   -0.491774
   5 O :   -0.600002
   6 C :    0.036383
   7 C :   -0.389901
   8 H :    0.156437
   9 H :    0.154867
  10 H :    0.154872
  11 H :    0.161390
  12 H :    0.161618
  13 H :    0.185344
  14 H :    0.182474
  15 H :    0.183496
  16 H :    0.186812
  17 H :    0.168237
  18 H :    0.162408
  19 H :    0.162592

  Mayer bond orders larger than 0.100000
B(  0-C ,  1-C ) :   0.8883 B(  0-C ,  8-H ) :   0.9687 B(  0-C ,  9-H ) :   0.9820
B(  0-C , 10-H ) :   0.9812 B(  1-C ,  2-C ) :   0.9175 B(  1-C , 11-H ) :   0.9582
B(  1-C , 12-H ) :   0.9597 B(  2-C ,  3-C ) :   0.9559 B(  2-C , 13-H ) :   0.9707
B(  2-C , 14-H ) :   0.9752 B(  3-C ,  4-O ) :   1.7548 B(  3-C ,  5-O ) :   1.0813
B(  5-O ,  6-C ) :   0.7882 B(  6-C ,  7-C ) :   0.9441 B(  6-C , 15-H ) :   0.9377
B(  6-C , 16-H ) :   0.9543 B(  7-C , 17-H ) :   0.9616 B(  7-C , 18-H ) :   0.9728
B(  7-C , 19-H ) :   0.9668

Dispersion correction           -0.004855944
FINAL SINGLE POINT ENERGY      -386.241154347352

DIPOLE MOMENT
-------------

Method             : SCF
Type of density    : Electron Density
Multiplicity       :   1
Irrep              :   0
Energy             :  -386.2478852396141633 Eh
Relativity type    :
Basis              : AO
                                X                 Y                 Z
Electronic contribution:      2.804552619       4.778193874      -1.350461931
Nuclear contribution   :     -2.592513153      -5.849173311       1.937461408
                        -----------------------------------------
Total Dipole Moment    :      0.212039466      -1.070979437       0.586999477
                        -----------------------------------------
Magnitude (a.u.)       :      1.239566890
Magnitude (Debye)      :      3.150728642

Rotational constants in cm-1:             0.136945             0.031178             0.027214
Rotational constants in MHz :          4105.499020           934.689726           815.840989

                             ****ORCA TERMINATED NORMALLY****
TOTAL RUN TIME: 0 days 0 hours 0 minutes 36 seconds 280 msec
