                         Program Version 6.0.0  -   RELEASE  -
|  1> ! pbe def2-sv(p) def2/J RI DEFGRID1 loosescf d4 GCP(DFT/SV(P)) printgap
|  2> %output
|  3>     printlevel normal
|  4> end
|  5> * xyz 0 1
|  6> C -3.3003233586 -0.868159885 0.2743664557
|  7> C -1.8981749435 -0.600125552 -0.2589633022
|  8> C -1.5042850572 0.8662149425 -0.0933898648
|  9> C -0.1157379181 1.1529996859 -0.6726108527
| 10> C 0.9508995536 0.4335621643 0.1107214022
| 11> O 1.0997353381 0.4992862376 1.3128792549
| 12> O 1.7346315284 -0.2927018797 -0.6795674172
| 13> C 2.8041914634 -1.0229825463 -0.0728504529
| 14> H -4.0306210889 -0.2645247663 -0.2589869085
| 15> H -3.5618915479 -1.9158094727 0.1506837762
| 16> H -3.357338287 -0.6215853188 1.3320310362
| 17> H -1.1795053389 -1.2268724539 0.275682287
| 18> H -1.8525531444 -0.870190165 -1.3161553594
| 19> H -1.5011686073 1.123978624 0.9676655629
| 20> H -2.2358724412 1.4981508613 -0.5981301871
| 21> H 0.0914780619 2.2220966402 -0.6012389671
| 22> H -0.0516246003 0.8419818958 -1.7146079664
| 23> H 3.4553580598 -1.324808972 -0.8870930659
| 24> H 2.406320199 -1.8938229578 0.4491021358
| 25> H 3.3311518578 -0.389219061 0.6413194613
| 26> *
| 27>
| 28>                          ****END OF INPUT****

CARTESIAN COORDINATES (ANGSTROEM)
---------------------------------
  C     -3.300323   -0.868160    0.274366
  C     -1.898175   -0.600126   -0.258963
  C     -1.504285    0.866215   -0.093390
  C     -0.115738    1.153000   -0.672611
  C      0.950900    0.433562    0.110721
  O      1.099735    0.499286    1.312879
  O      1.734632   -0.292702   -0.679567
  C      2.804191   -1.022983   -0.072850
  H     -4.030621   -0.264525   -0.258987
  H     -3.561892   -1.915809    0.150684
  H     -3.357338   -0.621585    1.332031
  H     -1.179505   -1.226872    0.275682
  H     -1.852553   -0.870190   -1.316155
  H     -1.501169    1.123979    0.967666
  H     -2.235872    1.498151   -0.598130
  H      0.091478    2.222097   -0.601239
  H     -0.051625    0.841982   -1.714608
  H      3.455358   -1.324809   -0.887093
  H      2.406320   -1.893823    0.449102
  H      3.331152   -0.389219    0.641319

 Total Charge           Charge          ....    0
 Multiplicity           Mult            ....    1
 Number of Electrons    NEL             ....   64
 Basis Dimension        Dim             ....  136

ORBITAL ENERGIES
----------------

  NO   OCC          E(Eh)            E(eV)
   0   2.0000     -18.799734      -511.5668
   1   2.0000     -18.731344      -509.7058
   2   2.0000     -10.004151      -272.2268
   3   2.0000      -9.941359      -270.5181
   4   2.0000      -9.896399      -269.2947
   5   2.0000      -9.888958      -269.0922
   6   2.0000      -9.885191      -268.9897
   7   2.0000      -9.874720      -268.7048
   8   2.0000      -1.004902       -27.3448
   9   2.0000      -0.908295       -24.7160
  10   2.0000      -0.730917       -19.8893
  11   2.0000      -0.684657       -18.6305
  12   2.0000      -0.647057       -17.6073
  13   2.0000      -0.576622       -15.6907
  14   2.0000      -0.525896       -14.3104
  15   2.0000      -0.499322       -13.5873
  16   2.0000      -0.452074       -12.3016
  17   2.0000      -0.436356       -11.8738
  18   2.0000      -0.422682       -11.5017
  19   2.0000      -0.402665       -10.9571
  20   2.0000      -0.393552       -10.7091
  21   2.0000      -0.380824       -10.3627
  22   2.0000      -0.368928       -10.0390
  23   2.0000      -0.339714        -9.2441
  24   2.0000      -0.334745        -9.1089
  25   2.0000      -0.322065        -8.7638
  26   2.0000      -0.303722        -8.2647
  27   2.0000      -0.293838        -7.9957
  28   2.0000      -0.288452        -7.8492
  29   2.0000      -0.283728        -7.7206
  30   2.0000      -0.257629        -7.0104
  31   2.0000      -0.217817        -5.9271
  32   0.0000      -0.019882        -0.5410
  33   0.0000       0.039718         1.0808
  34   0.0000       0.055366         1.5066
  35   0.0000       0.062903         1.7117
  36   0.0000       0.074894         2.0380

MULLIKEN ATOMIC CHARGES
-----------------------
   0 C :   -0.256202
   1 C :   -0.211983
   2 C :   -0.193647
   3 C :   -0.097981
   4 C :    0.082088
   5 O :   -0.212597
   6 O :   -0.237196
   7 C :   -0.114325
   8 H :    0.096619
   9 H :    0.102555
  10 H :    0.101581
  11 H :    0.102265
  12 H :    0.084155
  13 H :    0.102892
  14 H :    0.085871
  15 H :    0.111856
  16 H :    0.091379
  17 H :    0.121480
  18 H :    0.118460
  19 H :    0.122730
Sum of atomic charges:    0.0000000

LOEWDIN ATOMIC CHARGES
----------------------
   0 C :   -0.338664
   1 C :   -0.236674
   2 C :   -0.220497
   3 C :   -0.245346
   4 C :    0.034109
   5 O :   -0.172549
   6 O :   -0.073023
   7 C :   -0.204899
   8 H :    0.116519
   9 H :    0.119148
  10 H :    0.119377
  11 H :    0.117572
  12 H :    0.114088
  13 H :    0.123802
  14 H :    0.116771
  15 H :    0.142689
  16 H :    0.127196
  17 H :    0.120517
  18 H :    0.118980
  19 H :    0.120884

  Mayer bond orders larger than 0.100000
B(  0-C ,  1-C ) :   1.1577 B(  0-C ,  8-H ) :   0.9547 B(  0-C ,  9-H ) :   0.9532
B(  0-C , 10-H ) :   0.9545 B(  1-C ,  2-C ) :   1.1340 B(  1-C , 11-H ) :   0.9191
B(  1-C , 12-H ) :   0.9261 B(  2-C ,  3-C ) :   1.1130 B(  2-C , 13-H ) :   0.9139
B(  2-C , 14-H ) :   0.9230 B(  3-C ,  4-C ) :   1.0178 B(  3-C , 15-H ) :   0.8906
B(  3-C , 16-H ) :   0.9073 B(  4-C ,  5-O ) :   2.0490 B(  4-C ,  6-O ) :   1.2205
B(  6-O ,  7-C ) :   0.9397 B(  7-C , 17-H ) :   0.9599 B(  7-C , 18-H ) :   0.9566
B(  7-C , 19-H ) :   0.9452

Dispersion correction           -0.015105247
FINAL SINGLE POINT ENERGY      -385.453457054936

DIPOLE MOMENT
-------------

Method             : SCF
Type of density    : Electron Density
Multiplicity       :   1
Irrep              :   0
Energy             :  -385.5284210128685345 Eh
Relativity type    :
Basis              : AO
                                X                 Y                 Z
Electronic contribution:      8.047085843       2.390304509       0.848276004
Nuclear contribution   :     -7.919504517      -2.643153315      -1.453894198
                        -----------------------------------------
Total Dipole Moment    :      0.127581326      -0.252848807      -0.605618194
                        -----------------------------------------
Magnitude (a.u.)       :      0.668567806
Magnitude (Debye)      :      1.699364312

Rotational constants in cm-1:             0.127791             0.033176             0.031462
Rotational constants in MHz :          3831.074885           994.577550           943.219729

                             ****ORCA TERMINATED NORMALLY****
TOTAL RUN TIME: 0 days 0 hours 0 minutes 10 seconds 804 msec
