                         Program Version 6.0.0  -   RELEASE  -
|  1> ! r2scan-3c def2/J RI DEFGRID2 scfconv6 printgap
|  2> %output
|  3>     printlevel normal
|  4> end
|  5> * xyz 0 1
|  6> C -3.3530641265 -0.2514136876 0.9395185179
|  7> C -2.8141252518 -0.168632647 -0.4844565604
|  8> C -1.4189143829 0.4499545611 -0.5623669457
|  9> C -0.3496542743 -0.4159947509 0.0982743541
| 10> C 1.036446785 0.1247003223 -0.1280505858
| 11> O 1.3175307021 1.1024486005 -0.7870435523
| 12> O 1.9515813776 -0.6191019896 0.4914390521
| 13> C 3.3207885082 -0.2279132465 0.359277989
| 14> H -3.3340927164 0.7291939465 1.4093771438
| 15> H -4.3803226472 -0.607021429 0.930955517
| 16> H -2.763936447 -0.9363095514 1.5429269048
| 17> H -2.7914128536 -1.1675891836 -0.9242126016
| 18> H -3.4922595772 0.4412481945 -1.0841738037
| 19> H -1.4247371875 1.4341256904 -0.0899925573
| 20> H -1.1453489253 0.5978880949 -1.6091838219
| 21> H -0.3759699053 -1.4319331233 -0.301647085
| 22> H -0.5028493538 -0.4856924123 1.1757330171
| 23> H 3.4849973774 0.7254324872 0.8626569695
| 24> H 3.5791267542 -0.1218452604 -0.6949460351
| 25> H 3.8976784344 -1.0192278737 0.8270437542
| 26> *
| 27>
| 28>                          ****END OF INPUT****

CARTESIAN COORDINATES (ANGSTROEM)
---------------------------------
  C     -3.353064   -0.251414    0.939519
  C     -2.814125   -0.168633   -0.484457
  C     -1.418914    0.449955   -0.562367
  C     -0.349654   -0.415995    0.098274
  C      1.036447    0.124700   -0.128051
  O      1.317531    1.102449   -0.787044
  O      1.951581   -0.619102    0.491439
  C      3.320789   -0.227913    0.359278
  H     -3.334093    0.729194    1.409377
  H     -4.380323   -0.607021    0.930956
  H     -2.763936   -0.936310    1.542927
  H     -2.791413   -1.167589   -0.924213
  H     -3.492260    0.441248   -1.084174
  H     -1.424737    1.434126   -0.089993
  H     -1.145349    0.597888   -1.609184
  H     -0.375970   -1.431933   -0.301647
  H     -0.502849   -0.485692    1.175733
  H      3.484997    0.725432    0.862657
  H      3.579127   -0.121845   -0.694946
  H      3.897678   -1.019228    0.827044

 Total Charge           Charge          ....    0
 Multiplicity           Mult            ....    1
 Number of Electrons    NEL             ....   64
 Basis Dimension        Dim             ....  222

ORBITAL ENERGIES
----------------

  NO   OCC          E(Eh)            E(eV)
   0   2.0000     -18.997513      -516.9486
   1   2.0000     -18.931086      -515.1410
   2   2.0000     -10.153059      -276.2788
   3   2.0000     -10.086206      -274.4596
   4   2.0000     -10.043094      -273.2865
   5   2.0000     -10.027603      -272.8649
   6   2.0000     -10.026993      -272.8483
   7   2.0000     -10.018252      -272.6105
   8   2.0000      -1.072127       -29.1741
   9   2.0000      -0.977121       -26.5888
  10   2.0000      -0.776820       -21.1383
  11   2.0000      -0.727613       -19.7993
  12   2.0000      -0.684410       -18.6237
  13   2.0000      -0.622312       -16.9340
  14   2.0000      -0.550544       -14.9811
  15   2.0000      -0.523688       -14.2503
  16   2.0000      -0.473320       -12.8797
  17   2.0000      -0.462843       -12.5946
  18   2.0000      -0.440604       -11.9894
  19   2.0000      -0.429889       -11.6979
  20   2.0000      -0.413166       -11.2428
  21   2.0000      -0.398697       -10.8491
  22   2.0000      -0.376246       -10.2382
  23   2.0000      -0.363576        -9.8934
  24   2.0000      -0.352056        -9.5799
  25   2.0000      -0.330900        -9.0042
  26   2.0000      -0.324041        -8.8176
  27   2.0000      -0.301225        -8.1967
  28   2.0000      -0.300118        -8.1666
  29   2.0000      -0.296880        -8.0785
  30   2.0000      -0.273588        -7.4447
  31   2.0000      -0.238325        -6.4852
  32   0.0000      -0.014308        -0.3893
  33   0.0000       0.067538         1.8378
  34   0.0000       0.085103         2.3158
  35   0.0000       0.099766         2.7148
  36   0.0000       0.118284         3.2187

MULLIKEN ATOMIC CHARGES
-----------------------
   0 C :   -0.492416
   1 C :   -0.217297
   2 C :   -0.259642
   3 C :   -0.311037
   4 C :    0.351222
   5 O :   -0.420951
   6 O :   -0.185191
   7 C :   -0.295241
   8 H :    0.146717
   9 H :    0.147915
  10 H :    0.146568
  11 H :    0.132936
  12 H :    0.146444
  13 H :    0.147244
  14 H :    0.159323
  15 H :    0.165045
  16 H :    0.166363
  17 H :    0.157358
  18 H :    0.164074
  19 H :    0.150568
Sum of atomic charges:    0.0000000

LOEWDIN ATOMIC CHARGES
----------------------
   0 C :   -0.425920
   1 C :   -0.315505
   2 C :   -0.290881
   3 C :   -0.231041
   4 C :    0.359410
   5 O :   -0.426283
   6 O :   -0.605186
   7 C :   -0.045389
   8 H :    0.151117
   9 H :    0.151479
  10 H :    0.147702
  11 H :    0.151135
  12 H :    0.153997
  13 H :    0.162730
  14 H :    0.168931
  15 H :    0.182737
  16 H :    0.182406
  17 H :    0.174478
  18 H :    0.178199
  19 H :    0.175883

  Mayer bond orders larger than 0.100000
B(  0-C ,  1-C ) :   0.8805 B(  0-C ,  8-H ) :   0.9809 B(  0-C ,  9-H ) :   0.9691
B(  0-C , 10-H ) :   0.9840 B(  1-C ,  2-C ) :   0.8700 B(  1-C , 11-H ) :   0.9889
B(  1-C , 12-H ) :   0.9740 B(  2-C ,  3-C ) :   0.9494 B(  2-C , 13-H ) :   0.9730
B(  2-C , 14-H ) :   0.9667 B(  3-C ,  4-C ) :   1.0107 B(  3-C , 15-H ) :   0.9476
B(  3-C , 16-H ) :   0.9388 B(  4-C ,  5-O ) :   1.8299 B(  4-C ,  6-O ) :   1.0757
B(  6-O ,  7-C ) :   0.8487 B(  7-C , 17-H ) :   0.9623 B(  7-C , 18-H ) :   0.9642
B(  7-C , 19-H ) :   0.9700

Dispersion correction           -0.004982415
FINAL SINGLE POINT ENERGY      -386.230993441319

DIPOLE MOMENT
-------------

Method             : SCF
Type of density    : Electron Density
Multiplicity       :   1
Irrep              :   0
Energy             :  -386.2379992036532030 Eh
Relativity type    :
Basis              : AO
                                X                 Y                 Z
Electronic contribution:      8.668275345       1.144475727      -1.527091302
Nuclear contribution   :     -8.628748049      -1.720683004       1.913733632
                        -----------------------------------------
Total Dipole Moment    :      0.039527296      -0.576207277       0.386642331
                        -----------------------------------------
Magnitude (a.u.)       :      0.695032032
Magnitude (Debye)      :      1.766631029

Rotational constants in cm-1:             0.192003             0.027664             0.025402
Rotational constants in MHz :          5756.116954           829.354025           761.530989

                             ****ORCA TERMINATED NORMALLY****
TOTAL RUN TIME: 0 days 0 hours 0 minutes 25 seconds 152 msec
