                         Program Version 6.0.0  -   RELEASE  -
|  1> ! r2scan-3c def2/J RI DEFGRID2 scfconv6 printgap
|  2> %output
|  3>     printlevel normal
|  4> end
|  5> %cpcm
|  6>     smd true
|  7>     smdsolvent "water"
|  8> end
|  9> * xyz 0 1
| 10> C -3.3530641265 -0.2514136876 0.9395185179
| 11> C -2.8141252518 -0.168632647 -0.4844565604
| 12> C -1.4189143829 0.4499545611 -0.5623669457
| 13> C -0.3496542743 -0.4159947509 0.0982743541
| 14> C 1.036446785 0.1247003223 -0.1280505858
| 15> O 1.3175307021 1.1024486005 -0.7870435523
| 16> O 1.9515813776 -0.6191019896 0.4914390521
| 17> C 3.3207885082 -0.2279132465 0.359277989
| 18> H -3.3340927164 0.7291939465 1.4093771438
| 19> H -4.3803226472 -0.607021429 0.930955517
| 20> H -2.763936447 -0.9363095514 1.5429269048
| 21> H -2.7914128536 -1.1675891836 -0.9242126016
| 22> H -3.4922595772 0.4412481945 -1.0841738037
| 23> H -1.4247371875 1.4341256904 -0.0899925573
| 24> H -1.1453489253 0.5978880949 -1.6091838219
| 25> H -0.3759699053 -1.4319331233 -0.301647085
| 26> H -0.5028493538 -0.4856924123 1.1757330171
| 27> H 3.4849973774 0.7254324872 0.8626569695
| 28> H 3.5791267542 -0.1218452604 -0.6949460351
| 29> H 3.8976784344 -1.0192278737 0.8270437542
| 30> *
| 31>
| 32>                          ****END OF INPUT****

CARTESIAN COORDINATES (ANGSTROEM)
---------------------------------
  C     -3.353064   -0.251414    0.939519
  C     -2.814125   -0.168633   -0.484457
  C     -1.418914    0.449955   -0.562367
  C     -0.349654   -0.415995    0.098274
  C      1.036447    0.124700   -0.128051
  O      1.317531    1.102449   -0.787044
  O      1.951581   -0.619102    0.491439
  C      3.320789   -0.227913    0.359278
  H     -3.334093    0.729194    1.409377
  H     -4.380323   -0.607021    0.930956
  H     -2.763936   -0.936310    1.542927
  H     -2.791413   -1.167589   -0.924213
  H     -3.492260    0.441248   -1.084174
  H     -1.424737    1.434126   -0.089993
  H     -1.145349    0.597888   -1.609184
  H     -0.375970   -1.431933   -0.301647
  H     -0.502849   -0.485692    1.175733
  H      3.484997    0.725432    0.862657
  H      3.579127   -0.121845   -0.694946
  H      3.897678   -1.019228    0.827044

 Total Charge           Charge          ....    0
 Multiplicity           Mult            ....    1
 Number of Electrons    NEL             ....   64
 Basis Dimension        Dim             ....  222

ORBITAL ENERGIES
----------------

  NO   OCC          E(Eh)            E(eV)
   0   2.0000     -19.002558      -517.0859
   1   2.0000     -18.945719      -515.5392
   2   2.0000     -10.162507      -276.5359
   3   2.0000     -10.076128      -274.1854
   4   2.0000     -10.035755      -273.0868
   5   2.0000     -10.021669      -272.7035
   6   2.0000     -10.018445      -272.6157
   7   2.0000     -10.007756      -272.3249
   8   2.0000      -1.078768       -29.3548
   9   2.0000      -0.989579       -26.9278
  10   2.0000      -0.770493       -20.9662
  11   2.0000      -0.722095       -19.6492
  12   2.0000      -0.677620       -18.4390
  13   2.0000      -0.614739       -16.7279
  14   2.0000      -0.544456       -14.8154
  15   2.0000      -0.520853       -14.1731
  16   2.0000      -0.473372       -12.8811
  17   2.0000      -0.461793       -12.5660
  18   2.0000      -0.452253       -12.3064
  19   2.0000      -0.423575       -11.5261
  20   2.0000      -0.405503       -11.0343
  21   2.0000      -0.393495       -10.7075
  22   2.0000      -0.372145       -10.1266
  23   2.0000      -0.357837        -9.7372
  24   2.0000      -0.347422        -9.4538
  25   2.0000      -0.326142        -8.8748
  26   2.0000      -0.325257        -8.8507
  27   2.0000      -0.294265        -8.0073
  28   2.0000      -0.293835        -7.9957
  29   2.0000      -0.289059        -7.8657
  30   2.0000      -0.278292        -7.5727
  31   2.0000      -0.254144        -6.9156
  32   0.0000      -0.021268        -0.5787
  33   0.0000       0.072665         1.9773
  34   0.0000       0.093201         2.5361
  35   0.0000       0.109415         2.9773
  36   0.0000       0.127320         3.4646

MULLIKEN ATOMIC CHARGES
-----------------------
   0 C :   -0.526435
   1 C :   -0.241622
   2 C :   -0.282950
   3 C :   -0.312472
   4 C :    0.394840
   5 O :   -0.505215
   6 O :   -0.202560
   7 C :   -0.329792
   8 H :    0.155702
   9 H :    0.157108
  10 H :    0.160702
  11 H :    0.146612
  12 H :    0.153993
  13 H :    0.157111
  14 H :    0.157534
  15 H :    0.192529
  16 H :    0.192159
  17 H :    0.178000
  18 H :    0.176594
  19 H :    0.178162
Sum of atomic charges:    0.0000000

LOEWDIN ATOMIC CHARGES
----------------------
   0 C :   -0.432794
   1 C :   -0.315065
   2 C :   -0.295226
   3 C :   -0.227678
   4 C :    0.371482
   5 O :   -0.487166
   6 O :   -0.608652
   7 C :   -0.043375
   8 H :    0.153398
   9 H :    0.153247
  10 H :    0.152393
  11 H :    0.155549
  12 H :    0.155793
  13 H :    0.162970
  14 H :    0.165836
  15 H :    0.194336
  16 H :    0.193445
  17 H :    0.181127
  18 H :    0.182435
  19 H :    0.187945

  Mayer bond orders larger than 0.100000
B(  0-C ,  1-C ) :   0.8809 B(  0-C ,  8-H ) :   0.9781 B(  0-C ,  9-H ) :   0.9679
B(  0-C , 10-H ) :   0.9792 B(  1-C ,  2-C ) :   0.8766 B(  1-C , 11-H ) :   0.9887
B(  1-C , 12-H ) :   0.9738 B(  2-C ,  3-C ) :   0.9274 B(  2-C , 13-H ) :   0.9726
B(  2-C , 14-H ) :   0.9686 B(  3-C ,  4-C ) :   1.0161 B(  3-C , 15-H ) :   0.9333
B(  3-C , 16-H ) :   0.9269 B(  4-C ,  5-O ) :   1.7695 B(  4-C ,  6-O ) :   1.0984
B(  6-O ,  7-C ) :   0.8289 B(  7-C , 17-H ) :   0.9566 B(  7-C , 18-H ) :   0.9592
B(  7-C , 19-H ) :   0.9598

Dispersion correction           -0.004982415
FINAL SINGLE POINT ENERGY      -386.235943838796

DIPOLE MOMENT
-------------

Method             : SCF
Type of density    : Electron Density
Multiplicity       :   1
Irrep              :   0
Energy             :  -386.2429496011297942 Eh
Relativity type    :
Basis              : AO
                                X                 Y                 Z
Electronic contribution:      8.662124146       0.833725399      -1.317877555
Nuclear contribution   :     -8.628748049      -1.720683004       1.913733632
                        -----------------------------------------
Total Dipole Moment    :      0.033376097      -0.886957606       0.595856077
                        -----------------------------------------
Magnitude (a.u.)       :      1.069042666
Magnitude (Debye)      :      2.717290511

Rotational constants in cm-1:             0.192003             0.027664             0.025402
Rotational constants in MHz :          5756.116954           829.354025           761.530989

                             ****ORCA TERMINATED NORMALLY****
TOTAL RUN TIME: 0 days 0 hours 0 minutes 33 seconds 122 msec
