                         Program Version 6.0.0  -   RELEASE  -
|  1> ! pbe def2-sv(p) def2/J RI DEFGRID1 loosescf d4 GCP(DFT/SV(P)) printgap
|  2> %output
|  3>     printlevel normal
|  4> end
|  5> * xyz 0 1
|  6> C -3.6504661546 -0.4773643771 0.3618265792
|  7> C -2.3554673018 0.252393919 0.0297225542
|  8> C -1.1504601521 -0.680771373 0.1169837919
|  9> C 0.1307406995 0.0013474187 -0.2846498796
| 10> O 0.2075124699 1.0620881778 -0.8671124139
| 11> O 1.1896549922 -0.7240131711 0.0640404111
| 12> C 2.4980749255 -0.2196528978 -0.2539146473
| 13> C 2.9955697643 0.7361426132 0.819665407
| 14> H -3.6093630954 -0.8872725305 1.3678547383
| 15> H -4.4931721757 0.2056922516 0.3023621061
| 16> H -3.8186077062 -1.293098999 -0.3368025792
| 17> H -2.2118323546 1.0871051288 0.7183573954
| 18> H -2.4067834062 0.6696056966 -0.9775673096
| 19> H -1.285184612 -1.5331060153 -0.5535692112
| 20> H -1.0258746217 -1.0765579794 1.1256413282
| 21> H 3.1258603048 -1.1088891218 -0.316414895
| 22> H 2.4517613782 0.2832452082 -1.2246577669
| 23> H 2.3577854049 1.6164774938 0.8582685053
| 24> H 2.9848141138 0.2474732785 1.7901500586
| 25> H 4.0086894659 1.0453292132 0.584385931
| 26> *
| 27>
| 28>                          ****END OF INPUT****

CARTESIAN COORDINATES (ANGSTROEM)
---------------------------------
  C     -3.650466   -0.477364    0.361827
  C     -2.355467    0.252394    0.029723
  C     -1.150460   -0.680771    0.116984
  C      0.130741    0.001347   -0.284650
  O      0.207512    1.062088   -0.867112
  O      1.189655   -0.724013    0.064040
  C      2.498075   -0.219653   -0.253915
  C      2.995570    0.736143    0.819665
  H     -3.609363   -0.887273    1.367855
  H     -4.493172    0.205692    0.302362
  H     -3.818608   -1.293099   -0.336803
  H     -2.211832    1.087105    0.718357
  H     -2.406783    0.669606   -0.977567
  H     -1.285185   -1.533106   -0.553569
  H     -1.025875   -1.076558    1.125641
  H      3.125860   -1.108889   -0.316415
  H      2.451761    0.283245   -1.224658
  H      2.357785    1.616477    0.858269
  H      2.984814    0.247473    1.790150
  H      4.008689    1.045329    0.584386

 Total Charge           Charge          ....    0
 Multiplicity           Mult            ....    1
 Number of Electrons    NEL             ....   64
 Basis Dimension        Dim             ....  136

ORBITAL ENERGIES
----------------

  NO   OCC          E(Eh)            E(eV)
   0   2.0000     -18.795064      -511.4397
   1   2.0000     -18.732820      -509.7459
   2   2.0000     -10.005188      -272.2550
   3   2.0000      -9.945568      -270.6327
   4   2.0000      -9.897577      -269.3268
   5   2.0000      -9.886038      -269.0128
   6   2.0000      -9.885855      -269.0078
   7   2.0000      -9.876435      -268.7515
   8   2.0000      -1.002417       -27.2772
   9   2.0000      -0.909069       -24.7370
  10   2.0000      -0.725062       -19.7299
  11   2.0000      -0.696414       -18.9504
  12   2.0000      -0.638823       -17.3833
  13   2.0000      -0.587880       -15.9970
  14   2.0000      -0.528703       -14.3867
  15   2.0000      -0.490887       -13.3577
  16   2.0000      -0.452699       -12.3186
  17   2.0000      -0.437680       -11.9099
  18   2.0000      -0.420385       -11.4393
  19   2.0000      -0.399759       -10.8780
  20   2.0000      -0.391515       -10.6537
  21   2.0000      -0.372566       -10.1380
  22   2.0000      -0.359426        -9.7805
  23   2.0000      -0.350620        -9.5409
  24   2.0000      -0.336039        -9.1441
  25   2.0000      -0.323958        -8.8153
  26   2.0000      -0.309424        -8.4199
  27   2.0000      -0.299754        -8.1567
  28   2.0000      -0.291957        -7.9446
  29   2.0000      -0.287591        -7.8258
  30   2.0000      -0.254831        -6.9343
  31   2.0000      -0.218695        -5.9510
  32   0.0000      -0.018241        -0.4964
  33   0.0000       0.036887         1.0038
  34   0.0000       0.053818         1.4645
  35   0.0000       0.078607         2.1390
  36   0.0000       0.081997         2.2313

MULLIKEN ATOMIC CHARGES
-----------------------
   0 C :   -0.253279
   1 C :   -0.200590
   2 C :   -0.177934
   3 C :    0.132302
   4 O :   -0.209876
   5 O :   -0.241502
   6 C :   -0.010034
   7 C :   -0.304428
   8 H :    0.095601
   9 H :    0.105435
  10 H :    0.095997
  11 H :    0.094582
  12 H :    0.103097
  13 H :    0.110935
  14 H :    0.104180
  15 H :    0.100276
  16 H :    0.105575
  17 H :    0.126608
  18 H :    0.111773
  19 H :    0.111279
Sum of atomic charges:   -0.0000000

LOEWDIN ATOMIC CHARGES
----------------------
   0 C :   -0.339636
   1 C :   -0.230657
   2 C :   -0.250957
   3 C :    0.039770
   4 O :   -0.167799
   5 O :   -0.072638
   6 C :   -0.112652
   7 C :   -0.356738
   8 H :    0.116218
   9 H :    0.121032
  10 H :    0.116670
  11 H :    0.120055
  12 H :    0.123364
  13 H :    0.141279
  14 H :    0.134452
  15 H :    0.116316
  16 H :    0.118325
  17 H :    0.130233
  18 H :    0.123657
  19 H :    0.129706

  Mayer bond orders larger than 0.100000
B(  0-C ,  1-C ) :   1.1545 B(  0-C ,  8-H ) :   0.9529 B(  0-C ,  9-H ) :   0.9540
B(  0-C , 10-H ) :   0.9538 B(  1-C ,  2-C ) :   1.1314 B(  1-C , 11-H ) :   0.9316
B(  1-C , 12-H ) :   0.9224 B(  2-C ,  3-C ) :   1.0184 B(  2-C , 13-H ) :   0.8903
B(  2-C , 14-H ) :   0.9049 B(  3-C ,  4-O ) :   2.0368 B(  3-C ,  5-O ) :   1.2148
B(  5-O ,  6-C ) :   0.9241 B(  6-C ,  7-C ) :   1.1732 B(  6-C , 15-H ) :   0.9377
B(  6-C , 16-H ) :   0.9146 B(  7-C , 17-H ) :   0.9463 B(  7-C , 18-H ) :   0.9491
B(  7-C , 19-H ) :   0.9445

Dispersion correction           -0.014603255
FINAL SINGLE POINT ENERGY      -385.458910511490

DIPOLE MOMENT
-------------

Method             : SCF
Type of density    : Electron Density
Multiplicity       :   1
Irrep              :   0
Energy             :  -385.5341475900290220 Eh
Relativity type    :
Basis              : AO
                                X                 Y                 Z
Electronic contribution:      3.936398640       0.194835209      -2.803275701
Nuclear contribution   :     -3.658685396      -0.692979591       3.119700143
                        -----------------------------------------
Total Dipole Moment    :      0.277713243      -0.498144382       0.316424442
                        -----------------------------------------
Magnitude (a.u.)       :      0.652224576
Magnitude (Debye)      :      1.657823124

Rotational constants in cm-1:             0.195743             0.028478             0.027334
Rotational constants in MHz :          5868.223871           853.762593           819.459959

                             ****ORCA TERMINATED NORMALLY****
TOTAL RUN TIME: 0 days 0 hours 0 minutes 11 seconds 142 msec
