                         Program Version 6.0.0  -   RELEASE  -
|  1> ! pbe def2-sv(p) def2/J RI DEFGRID1 loosescf d4 GCP(DFT/SV(P)) printgap
|  2> %output
|  3>     printlevel normal
|  4> end
|  5> * xyz 0 1
|  6> C -2.2224566063 -1.5001393098 -0.0035003012
|  7> C -2.4639660995 0.0031593564 0.060084807
|  8> C -1.3521983286 0.782543834 -0.647144538
|  9> C -0.0400122783 0.646685024 0.0826470973
| 10> O 0.1052962844 0.7703301711 1.2808117303
| 11> O 0.956986101 0.3931331431 -0.7570645909
| 12> C 2.283195332 0.236276144 -0.2252711364
| 13> C 2.5515584593 -1.2135807155 0.1483661767
| 14> H -1.2913480726 -1.7550552752 0.4991118451
| 15> H -3.0318127299 -2.0352131786 0.4859423132
| 16> H -2.1596609093 -1.8346635428 -1.0362692631
| 17> H -2.5048068068 0.3232746193 1.102822543
| 18> H -3.4173558516 0.242167617 -0.4115600232
| 19> H -1.6034259488 1.8449771035 -0.6597786705
| 20> H -1.216679857 0.4381944232 -1.6717707278
| 21> H 2.9441199061 0.5681252728 -1.026609263
| 22> H 2.3880124837 0.8863346626 0.6487409377
| 23> H 3.5798255365 -1.3158220181 0.4794656911
| 24> H 1.8893941741 -1.5193786215 0.9555671215
| 25> H 2.3842065109 -1.8579736399 -0.7104310836
| 26> *
| 27>
| 28>                          ****END OF INPUT****

CARTESIAN COORDINATES (ANGSTROEM)
---------------------------------
  C     -2.222457   -1.500139   -0.003500
  C     -2.463966    0.003159    0.060085
  C     -1.352198    0.782544   -0.647145
  C     -0.040012    0.646685    0.082647
  O      0.105296    0.770330    1.280812
  O      0.956986    0.393133   -0.757065
  C      2.283195    0.236276   -0.225271
  C      2.551558   -1.213581    0.148366
  H     -1.291348   -1.755055    0.499112
  H     -3.031813   -2.035213    0.485942
  H     -2.159661   -1.834664   -1.036269
  H     -2.504807    0.323275    1.102823
  H     -3.417356    0.242168   -0.411560
  H     -1.603426    1.844977   -0.659779
  H     -1.216680    0.438194   -1.671771
  H      2.944120    0.568125   -1.026609
  H      2.388012    0.886335    0.648741
  H      3.579826   -1.315822    0.479466
  H      1.889394   -1.519379    0.955567
  H      2.384207   -1.857974   -0.710431

 Total Charge           Charge          ....    0
 Multiplicity           Mult            ....    1
 Number of Electrons    NEL             ....   64
 Basis Dimension        Dim             ....  136

ORBITAL ENERGIES
----------------

  NO   OCC          E(Eh)            E(eV)
   0   2.0000     -18.797451      -511.5046
   1   2.0000     -18.731632      -509.7136
   2   2.0000     -10.004912      -272.2475
   3   2.0000      -9.945977      -270.6438
   4   2.0000      -9.896035      -269.2848
   5   2.0000      -9.889536      -269.1080
   6   2.0000      -9.887515      -269.0530
   7   2.0000      -9.876386      -268.7501
   8   2.0000      -1.003712       -27.3124
   9   2.0000      -0.908810       -24.7300
  10   2.0000      -0.726555       -19.7706
  11   2.0000      -0.696888       -18.9633
  12   2.0000      -0.636328       -17.3154
  13   2.0000      -0.590714       -16.0741
  14   2.0000      -0.531647       -14.4669
  15   2.0000      -0.492061       -13.3897
  16   2.0000      -0.451726       -12.2921
  17   2.0000      -0.434205       -11.8153
  18   2.0000      -0.425168       -11.5694
  19   2.0000      -0.394920       -10.7463
  20   2.0000      -0.391026       -10.6404
  21   2.0000      -0.374605       -10.1935
  22   2.0000      -0.359791        -9.7904
  23   2.0000      -0.353434        -9.6174
  24   2.0000      -0.337464        -9.1829
  25   2.0000      -0.329522        -8.9667
  26   2.0000      -0.304362        -8.2821
  27   2.0000      -0.297751        -8.1022
  28   2.0000      -0.296149        -8.0586
  29   2.0000      -0.287245        -7.8163
  30   2.0000      -0.255628        -6.9560
  31   2.0000      -0.218510        -5.9460
  32   0.0000      -0.020108        -0.5472
  33   0.0000       0.036111         0.9826
  34   0.0000       0.056980         1.5505
  35   0.0000       0.069930         1.9029
  36   0.0000       0.080695         2.1958

MULLIKEN ATOMIC CHARGES
-----------------------
   0 C :   -0.292700
   1 C :   -0.193168
   2 C :   -0.129672
   3 C :    0.092371
   4 O :   -0.211991
   5 O :   -0.234524
   6 C :   -0.015984
   7 C :   -0.304645
   8 H :    0.117012
   9 H :    0.107375
  10 H :    0.098246
  11 H :    0.107737
  12 H :    0.089677
  13 H :    0.114744
  14 H :    0.093599
  15 H :    0.101522
  16 H :    0.108101
  17 H :    0.111998
  18 H :    0.126920
  19 H :    0.113384
Sum of atomic charges:   -0.0000000

LOEWDIN ATOMIC CHARGES
----------------------
   0 C :   -0.342802
   1 C :   -0.228789
   2 C :   -0.247904
   3 C :    0.037648
   4 O :   -0.174150
   5 O :   -0.066434
   6 C :   -0.113849
   7 C :   -0.355631
   8 H :    0.120230
   9 H :    0.121663
  10 H :    0.116747
  11 H :    0.125028
  12 H :    0.117661
  13 H :    0.143642
  14 H :    0.127084
  15 H :    0.116724
  16 H :    0.119275
  17 H :    0.130105
  18 H :    0.129434
  19 H :    0.124317

  Mayer bond orders larger than 0.100000
B(  0-C ,  1-C ) :   1.1549 B(  0-C ,  8-H ) :   0.9494 B(  0-C ,  9-H ) :   0.9521
B(  0-C , 10-H ) :   0.9537 B(  1-C ,  2-C ) :   1.1131 B(  1-C , 11-H ) :   0.9180
B(  1-C , 12-H ) :   0.9275 B(  2-C ,  3-C ) :   1.0196 B(  2-C , 13-H ) :   0.8893
B(  2-C , 14-H ) :   0.9114 B(  3-C ,  4-O ) :   2.0331 B(  3-C ,  5-O ) :   1.2210
B(  5-O ,  6-C ) :   0.9221 B(  6-C ,  7-C ) :   1.1735 B(  6-C , 15-H ) :   0.9372
B(  6-C , 16-H ) :   0.9120 B(  7-C , 17-H ) :   0.9442 B(  7-C , 18-H ) :   0.9459
B(  7-C , 19-H ) :   0.9493

Dispersion correction           -0.015326828
FINAL SINGLE POINT ENERGY      -385.458913662286

DIPOLE MOMENT
-------------

Method             : SCF
Type of density    : Electron Density
Multiplicity       :   1
Irrep              :   0
Energy             :  -385.5338186946263477 Eh
Relativity type    :
Basis              : AO
                                X                 Y                 Z
Electronic contribution:      2.119951596       5.436958595       0.664760334
Nuclear contribution   :     -1.897668895      -5.625851229      -1.253850889
                        -----------------------------------------
Total Dipole Moment    :      0.222282702      -0.188892634      -0.589090555
                        -----------------------------------------
Magnitude (a.u.)       :      0.657356607
Magnitude (Debye)      :      1.670867709

Rotational constants in cm-1:             0.117344             0.038730             0.035319
Rotational constants in MHz :          3517.872673          1161.093252          1058.839505

                             ****ORCA TERMINATED NORMALLY****
TOTAL RUN TIME: 0 days 0 hours 0 minutes 10 seconds 809 msec
