                         Program Version 6.0.0  -   RELEASE  -
|  1> ! r2scan-3c def2/J RI DEFGRID2 scfconv6 printgap
|  2> %output
|  3>     printlevel normal
|  4> end
|  5> * xyz 0 1
|  6> C 2.1250591507 -0.3239768734 -0.6025943625
|  7> C 1.3873038634 0.4870544073 0.4569107404
|  8> C -0.0217205214 -0.0334288122 0.7407001366
|  9> C -0.9893333476 0.1582328858 -0.4356424959
| 10> N -2.3656446736 -0.2251530535 -0.154922698
| 11> H 1.6333503738 -0.2425356574 -1.5680895613
| 12> H 3.1446933914 0.0382307707 -0.709211058
| 13> H 2.1617682678 -1.373897302 -0.3204513703
| 14> H 1.9609076797 0.4576281809 1.3863620724
| 15> H 1.3259592349 1.5301344931 0.1387460806
| 16> H 0.0287464914 -1.0958013412 0.9956490177
| 17> H -0.4241575749 0.4978437637 1.6087280161
| 18> H -0.6590783308 -0.4334172935 -1.2922404862
| 19> H -0.9955321537 1.2110115865 -0.73259927
| 20> H -2.7135124878 0.3123670266 0.6327262101
| 21> H -2.3957263903 -1.203275423 0.1140904567
| 22> *
| 23>
| 24>                          ****END OF INPUT****

CARTESIAN COORDINATES (ANGSTROEM)
---------------------------------
  C      2.125059   -0.323977   -0.602594
  C      1.387304    0.487054    0.456911
  C     -0.021721   -0.033429    0.740700
  C     -0.989333    0.158233   -0.435642
  N     -2.365645   -0.225153   -0.154923
  H      1.633350   -0.242536   -1.568090
  H      3.144693    0.038231   -0.709211
  H      2.161768   -1.373897   -0.320451
  H      1.960908    0.457628    1.386362
  H      1.325959    1.530134    0.138746
  H      0.028746   -1.095801    0.995649
  H     -0.424158    0.497844    1.608728
  H     -0.659078   -0.433417   -1.292240
  H     -0.995532    1.211012   -0.732599
  H     -2.713512    0.312367    0.632726
  H     -2.395726   -1.203275    0.114090

 Total Charge           Charge          ....    0
 Multiplicity           Mult            ....    1
 Number of Electrons    NEL             ....   42
 Basis Dimension        Dim             ....  155

ORBITAL ENERGIES
----------------

  NO   OCC          E(Eh)            E(eV)
   0   2.0000     -14.133132      -384.5821
   1   2.0000     -10.046790      -273.3871
   2   2.0000     -10.025402      -272.8051
   3   2.0000     -10.021774      -272.7063
   4   2.0000     -10.016395      -272.5600
   5   2.0000      -0.845618       -23.0104
   6   2.0000      -0.753330       -20.4992
   7   2.0000      -0.667367       -18.1600
   8   2.0000      -0.596091       -16.2205
   9   2.0000      -0.538532       -14.6542
  10   2.0000      -0.466669       -12.6987
  11   2.0000      -0.429077       -11.6758
  12   2.0000      -0.413010       -11.2386
  13   2.0000      -0.379394       -10.3238
  14   2.0000      -0.372368       -10.1326
  15   2.0000      -0.352170        -9.5830
  16   2.0000      -0.326752        -8.8914
  17   2.0000      -0.309978        -8.4349
  18   2.0000      -0.298282        -8.1167
  19   2.0000      -0.293435        -7.9848
  20   2.0000      -0.201408        -5.4806
  21   0.0000       0.073950         2.0123
  22   0.0000       0.091130         2.4798
  23   0.0000       0.119074         3.2402
  24   0.0000       0.128533         3.4976
  25   0.0000       0.133643         3.6366

MULLIKEN ATOMIC CHARGES
-----------------------
   0 C :   -0.484510
   1 C :   -0.241682
   2 C :   -0.193915
   3 C :   -0.299316
   4 N :   -0.530038
   5 H :    0.148211
   6 H :    0.146474
   7 H :    0.142614
   8 H :    0.140527
   9 H :    0.132698
  10 H :    0.129576
  11 H :    0.133236
  12 H :    0.149916
  13 H :    0.146442
  14 H :    0.239238
  15 H :    0.240529
Sum of atomic charges:   -0.0000000

LOEWDIN ATOMIC CHARGES
----------------------
   0 C :   -0.427068
   1 C :   -0.318949
   2 C :   -0.307609
   3 C :   -0.084259
   4 N :   -0.732664
   5 H :    0.149215
   6 H :    0.150916
   7 H :    0.149842
   8 H :    0.151933
   9 H :    0.151637
  10 H :    0.151903
  11 H :    0.153347
  12 H :    0.172383
  13 H :    0.171279
  14 H :    0.234056
  15 H :    0.234041

  Mayer bond orders larger than 0.100000
B(  0-C ,  1-C ) :   0.9043 B(  0-C ,  5-H ) :   0.9817 B(  0-C ,  6-H ) :   0.9708
B(  0-C ,  7-H ) :   0.9817 B(  1-C ,  2-C ) :   0.8972 B(  1-C ,  8-H ) :   0.9671
B(  1-C ,  9-H ) :   0.9815 B(  2-C ,  3-C ) :   0.8605 B(  2-C , 10-H ) :   0.9661
B(  2-C , 11-H ) :   0.9591 B(  3-C ,  4-N ) :   0.9532 B(  3-C , 12-H ) :   1.0002
B(  3-C , 13-H ) :   1.0012 B(  4-N , 14-H ) :   0.9172 B(  4-N , 15-H ) :   0.9173

Dispersion correction           -0.003444031
FINAL SINGLE POINT ENERGY      -213.722604627819

DIPOLE MOMENT
-------------

Method             : SCF
Type of density    : Electron Density
Multiplicity       :   1
Irrep              :   0
Energy             :  -213.7297405939335704 Eh
Relativity type    :
Basis              : AO
                                X                 Y                 Z
Electronic contribution:     -2.556027923       0.212627360       0.206866760
Nuclear contribution   :      2.864809799      -0.284284373       0.237174714
                        -----------------------------------------
Total Dipole Moment    :      0.308781876      -0.071657013       0.444041473
                        -----------------------------------------
Magnitude (a.u.)       :      0.545576580
Magnitude (Debye)      :      1.386745459

Rotational constants in cm-1:             0.405933             0.077431             0.071764
Rotational constants in MHz :         12169.558119          2321.334408          2151.425611

                             ****ORCA TERMINATED NORMALLY****
TOTAL RUN TIME: 0 days 0 hours 0 minutes 17 seconds 686 msec
