                         Program Version 6.0.0  -   RELEASE  -
|  1> ! r2scan-3c def2/J RI DEFGRID2 scfconv6 printgap
|  2> %output
|  3>     printlevel normal
|  4> end
|  5> %cpcm
|  6>     smd true
|  7>     smdsolvent "water"
|  8> end
|  9> * xyz 0 1
| 10> C 2.1250591507 -0.3239768734 -0.6025943625
| 11> C 1.3873038634 0.4870544073 0.4569107404
| 12> C -0.0217205214 -0.0334288122 0.7407001366
| 13> C -0.9893333476 0.1582328858 -0.4356424959
| 14> N -2.3656446736 -0.2251530535 -0.154922698
| 15> H 1.6333503738 -0.2425356574 -1.5680895613
| 16> H 3.1446933914 0.0382307707 -0.709211058
| 17> H 2.1617682678 -1.373897302 -0.3204513703
| 18> H 1.9609076797 0.4576281809 1.3863620724
| 19> H 1.3259592349 1.5301344931 0.1387460806
| 20> H 0.0287464914 -1.0958013412 0.9956490177
| 21> H -0.4241575749 0.4978437637 1.6087280161
| 22> H -0.6590783308 -0.4334172935 -1.2922404862
| 23> H -0.9955321537 1.2110115865 -0.73259927
| 24> H -2.7135124878 0.3123670266 0.6327262101
| 25> H -2.3957263903 -1.203275423 0.1140904567
| 26> *
| 27>
| 28>                          ****END OF INPUT****

CARTESIAN COORDINATES (ANGSTROEM)
---------------------------------
  C      2.125059   -0.323977   -0.602594
  C      1.387304    0.487054    0.456911
  C     -0.021721   -0.033429    0.740700
  C     -0.989333    0.158233   -0.435642
  N     -2.365645   -0.225153   -0.154923
  H      1.633350   -0.242536   -1.568090
  H      3.144693    0.038231   -0.709211
  H      2.161768   -1.373897   -0.320451
  H      1.960908    0.457628    1.386362
  H      1.325959    1.530134    0.138746
  H      0.028746   -1.095801    0.995649
  H     -0.424158    0.497844    1.608728
  H     -0.659078   -0.433417   -1.292240
  H     -0.995532    1.211012   -0.732599
  H     -2.713512    0.312367    0.632726
  H     -2.395726   -1.203275    0.114090

 Total Charge           Charge          ....    0
 Multiplicity           Mult            ....    1
 Number of Electrons    NEL             ....   42
 Basis Dimension        Dim             ....  155

ORBITAL ENERGIES
----------------

  NO   OCC          E(Eh)            E(eV)
   0   2.0000     -14.127023      -384.4158
   1   2.0000     -10.039295      -273.1831
   2   2.0000     -10.015931      -272.5473
   3   2.0000     -10.011876      -272.4370
   4   2.0000     -10.006457      -272.2895
   5   2.0000      -0.839322       -22.8391
   6   2.0000      -0.744009       -20.2455
   7   2.0000      -0.658562       -17.9204
   8   2.0000      -0.587923       -15.9982
   9   2.0000      -0.529473       -14.4077
  10   2.0000      -0.458385       -12.4733
  11   2.0000      -0.420336       -11.4379
  12   2.0000      -0.403805       -10.9881
  13   2.0000      -0.370560       -10.0835
  14   2.0000      -0.364353        -9.9146
  15   2.0000      -0.344023        -9.3614
  16   2.0000      -0.318152        -8.6574
  17   2.0000      -0.300894        -8.1877
  18   2.0000      -0.288395        -7.8476
  19   2.0000      -0.283747        -7.7212
  20   2.0000      -0.201839        -5.4923
  21   0.0000       0.085203         2.3185
  22   0.0000       0.101310         2.7568
  23   0.0000       0.126829         3.4512
  24   0.0000       0.139979         3.8090
  25   0.0000       0.143499         3.9048

MULLIKEN ATOMIC CHARGES
-----------------------
   0 C :   -0.520812
   1 C :   -0.255238
   2 C :   -0.221936
   3 C :   -0.293032
   4 N :   -0.629568
   5 H :    0.158473
   6 H :    0.155050
   7 H :    0.153759
   8 H :    0.148465
   9 H :    0.141554
  10 H :    0.143059
  11 H :    0.146199
  12 H :    0.157030
  13 H :    0.152156
  14 H :    0.282026
  15 H :    0.282812
Sum of atomic charges:   -0.0000000

LOEWDIN ATOMIC CHARGES
----------------------
   0 C :   -0.435420
   1 C :   -0.321051
   2 C :   -0.307043
   3 C :   -0.088523
   4 N :   -0.759005
   5 H :    0.151683
   6 H :    0.152287
   7 H :    0.152583
   8 H :    0.153809
   9 H :    0.153688
  10 H :    0.155785
  11 H :    0.157073
  12 H :    0.174340
  13 H :    0.172986
  14 H :    0.243464
  15 H :    0.243345

  Mayer bond orders larger than 0.100000
B(  0-C ,  1-C ) :   0.8983 B(  0-C ,  5-H ) :   0.9786 B(  0-C ,  6-H ) :   0.9692
B(  0-C ,  7-H ) :   0.9788 B(  1-C ,  2-C ) :   0.8947 B(  1-C ,  8-H ) :   0.9680
B(  1-C ,  9-H ) :   0.9818 B(  2-C ,  3-C ) :   0.8767 B(  2-C , 10-H ) :   0.9671
B(  2-C , 11-H ) :   0.9607 B(  3-C ,  4-N ) :   0.9618 B(  3-C , 12-H ) :   0.9907
B(  3-C , 13-H ) :   0.9922 B(  4-N , 14-H ) :   0.9012 B(  4-N , 15-H ) :   0.9012

Dispersion correction           -0.003444031
FINAL SINGLE POINT ENERGY      -213.728447752115

DIPOLE MOMENT
-------------

Method             : SCF
Type of density    : Electron Density
Multiplicity       :   1
Irrep              :   0
Energy             :  -213.7355837182286109 Eh
Relativity type    :
Basis              : AO
                                X                 Y                 Z
Electronic contribution:     -2.471674072       0.178747989       0.372166585
Nuclear contribution   :      2.864809799      -0.284284373       0.237174714
                        -----------------------------------------
Total Dipole Moment    :      0.393135727      -0.105536384       0.609341298
                        -----------------------------------------
Magnitude (a.u.)       :      0.732796319
Magnitude (Debye)      :      1.862620219

Rotational constants in cm-1:             0.405933             0.077431             0.071764
Rotational constants in MHz :         12169.558119          2321.334408          2151.425611

                             ****ORCA TERMINATED NORMALLY****
TOTAL RUN TIME: 0 days 0 hours 0 minutes 21 seconds 393 msec
