                         Program Version 6.0.0  -   RELEASE  -
|  1> ! pbe def2-sv(p) def2/J RI DEFGRID1 loosescf d4 GCP(DFT/SV(P)) printgap
|  2> %output
|  3>     printlevel normal
|  4> end
|  5> * xyz 0 1
|  6> C 1.6569884524 -0.7538923489 0.5140119645
|  7> C 1.3646843926 0.5319490429 -0.2512165863
|  8> C -0.0349969798 0.5830463341 -0.8672588745
|  9> C -1.1776284544 0.5586013765 0.1558928062
| 10> N -1.7120922113 -0.7897236904 0.3107298835
| 11> H 1.0392360754 -0.8265141017 1.4061443106
| 12> H 1.4709187186 -1.6214616688 -0.1151925781
| 13> H 2.6981010005 -0.7748722865 0.8285011761
| 14> H 1.4922191537 1.386658139 0.4179642574
| 15> H 2.0941411148 0.6347837779 -1.0577129815
| 16> H -0.1098931806 1.4980360253 -1.4569551203
| 17> H -0.1725998664 -0.2615946404 -1.5436800492
| 18> H -2.0030844616 1.1793798018 -0.2048033939
| 19> H -0.8261804767 0.9975748042 1.1055933123
| 20> H -2.4607458448 -0.7860210679 0.9942398083
| 21> H -0.9874723628 -1.4112319932 0.6532673651
| 22> *
| 23>
| 24>                          ****END OF INPUT****

CARTESIAN COORDINATES (ANGSTROEM)
---------------------------------
  C      1.656988   -0.753892    0.514012
  C      1.364684    0.531949   -0.251217
  C     -0.034997    0.583046   -0.867259
  C     -1.177628    0.558601    0.155893
  N     -1.712092   -0.789724    0.310730
  H      1.039236   -0.826514    1.406144
  H      1.470919   -1.621462   -0.115193
  H      2.698101   -0.774872    0.828501
  H      1.492219    1.386658    0.417964
  H      2.094141    0.634784   -1.057713
  H     -0.109893    1.498036   -1.456955
  H     -0.172600   -0.261595   -1.543680
  H     -2.003084    1.179380   -0.204803
  H     -0.826180    0.997575    1.105593
  H     -2.460746   -0.786021    0.994240
  H     -0.987472   -1.411232    0.653267

 Total Charge           Charge          ....    0
 Multiplicity           Mult            ....    1
 Number of Electrons    NEL             ....   42
 Basis Dimension        Dim             ....   92

ORBITAL ENERGIES
----------------

  NO   OCC          E(Eh)            E(eV)
   0   2.0000     -13.952103      -379.6560
   1   2.0000      -9.902152      -269.4513
   2   2.0000      -9.882197      -268.9083
   3   2.0000      -9.875742      -268.7326
   4   2.0000      -9.875438      -268.7243
   5   2.0000      -0.789153       -21.4740
   6   2.0000      -0.704289       -19.1647
   7   2.0000      -0.630782       -17.1644
   8   2.0000      -0.556224       -15.1356
   9   2.0000      -0.502622       -13.6770
  10   2.0000      -0.439476       -11.9588
  11   2.0000      -0.418138       -11.3781
  12   2.0000      -0.390795       -10.6341
  13   2.0000      -0.380772       -10.3613
  14   2.0000      -0.343153        -9.3377
  15   2.0000      -0.341281        -9.2867
  16   2.0000      -0.324816        -8.8387
  17   2.0000      -0.287264        -7.8168
  18   2.0000      -0.282908        -7.6983
  19   2.0000      -0.274277        -7.4634
  20   2.0000      -0.177236        -4.8228
  21   0.0000       0.030999         0.8435
  22   0.0000       0.058436         1.5901
  23   0.0000       0.067727         1.8429
  24   0.0000       0.073667         2.0046
  25   0.0000       0.100768         2.7420

MULLIKEN ATOMIC CHARGES
-----------------------
   0 C :   -0.300712
   1 C :   -0.188727
   2 C :   -0.171811
   3 C :   -0.072631
   4 N :   -0.467312
   5 H :    0.104170
   6 H :    0.105347
   7 H :    0.105039
   8 H :    0.086223
   9 H :    0.086402
  10 H :    0.083306
  11 H :    0.091086
  12 H :    0.076105
  13 H :    0.064887
  14 H :    0.199161
  15 H :    0.199467
Sum of atomic charges:   -0.0000000

LOEWDIN ATOMIC CHARGES
----------------------
   0 C :   -0.347390
   1 C :   -0.234453
   2 C :   -0.239086
   3 C :   -0.175395
   4 N :   -0.417902
   5 H :    0.112227
   6 H :    0.118144
   7 H :    0.120760
   8 H :    0.112503
   9 H :    0.115548
  10 H :    0.118717
  11 H :    0.119065
  12 H :    0.110833
  13 H :    0.086388
  14 H :    0.202633
  15 H :    0.197408

  Mayer bond orders larger than 0.100000
B(  0-C ,  1-C ) :   1.1524 B(  0-C ,  5-H ) :   0.9423 B(  0-C ,  6-H ) :   0.9514
B(  0-C ,  7-H ) :   0.9494 B(  1-C ,  2-C ) :   1.1362 B(  1-C ,  8-H ) :   0.9260
B(  1-C ,  9-H ) :   0.9277 B(  2-C ,  3-C ) :   1.0993 B(  2-C , 10-H ) :   0.9234
B(  2-C , 11-H ) :   0.9206 B(  3-C ,  4-N ) :   1.1163 B(  3-C , 12-H ) :   0.9308
B(  3-C , 13-H ) :   0.9214 B(  4-N , 14-H ) :   0.9036 B(  4-N , 15-H ) :   0.9005

Dispersion correction           -0.010634045
FINAL SINGLE POINT ENERGY      -213.241490017458

DIPOLE MOMENT
-------------

Method             : SCF
Type of density    : Electron Density
Multiplicity       :   1
Irrep              :   0
Energy             :  -213.3017537130486687 Eh
Relativity type    :
Basis              : AO
                                X                 Y                 Z
Electronic contribution:     -1.923850527       0.099801601      -0.505374799
Nuclear contribution   :      2.087099491       0.009510213       0.965534070
                        -----------------------------------------
Total Dipole Moment    :      0.163248963       0.109311814       0.460159271
                        -----------------------------------------
Magnitude (a.u.)       :      0.500345732
Magnitude (Debye)      :      1.271777781

Rotational constants in cm-1:             0.255329             0.108643             0.086082
Rotational constants in MHz :          7654.560100          3257.022924          2580.663311

                             ****ORCA TERMINATED NORMALLY****
TOTAL RUN TIME: 0 days 0 hours 0 minutes 6 seconds 721 msec
