                         Program Version 6.0.0  -   RELEASE  -
|  1> ! r2scan-3c def2/J RI DEFGRID2 scfconv6 printgap
|  2> %output
|  3>     printlevel normal
|  4> end
|  5> * xyz 0 1
|  6> C 2.3926805269 -0.3208104577 -0.1772258075
|  7> C 0.9953750159 0.239930304 -0.4110449565
|  8> C 0.0621758536 -0.0524541301 0.7608697061
|  9> C -1.3590143075 0.4450502572 0.5014857168
| 10> N -1.9479332608 -0.2471656304 -0.6378952668
| 11> H 3.039775053 -0.0956394766 -1.0211544987
| 12> H 2.8326640655 0.1117980709 0.7189321543
| 13> H 2.3546698046 -1.400649041 -0.0521186707
| 14> H 1.0552253418 1.3202153391 -0.5580500728
| 15> H 0.5660255781 -0.194403593 -1.3141999216
| 16> H 0.0345020303 -1.1301511962 0.9400914497
| 17> H 0.4432097927 0.4273483244 1.6647825592
| 18> H -1.3323341042 1.5114414808 0.2589579404
| 19> H -1.95109792 0.3256674517 1.426533635
| 20> H -2.8924742625 0.0856302464 -0.7924357033
| 21> H -2.0006382947 -1.2410926311 -0.4395333396
| 22> *
| 23>
| 24>                          ****END OF INPUT****

CARTESIAN COORDINATES (ANGSTROEM)
---------------------------------
  C      2.392681   -0.320810   -0.177226
  C      0.995375    0.239930   -0.411045
  C      0.062176   -0.052454    0.760870
  C     -1.359014    0.445050    0.501486
  N     -1.947933   -0.247166   -0.637895
  H      3.039775   -0.095639   -1.021154
  H      2.832664    0.111798    0.718932
  H      2.354670   -1.400649   -0.052119
  H      1.055225    1.320215   -0.558050
  H      0.566026   -0.194404   -1.314200
  H      0.034502   -1.130151    0.940091
  H      0.443210    0.427348    1.664783
  H     -1.332334    1.511441    0.258958
  H     -1.951098    0.325667    1.426534
  H     -2.892474    0.085630   -0.792436
  H     -2.000638   -1.241093   -0.439533

 Total Charge           Charge          ....    0
 Multiplicity           Mult            ....    1
 Number of Electrons    NEL             ....   42
 Basis Dimension        Dim             ....  155

ORBITAL ENERGIES
----------------

  NO   OCC          E(Eh)            E(eV)
   0   2.0000     -14.133946      -384.6042
   1   2.0000     -10.047371      -273.4029
   2   2.0000     -10.019941      -272.6564
   3   2.0000     -10.013330      -272.4766
   4   2.0000     -10.009665      -272.3768
   5   2.0000      -0.846231       -23.0271
   6   2.0000      -0.746177       -20.3045
   7   2.0000      -0.670340       -18.2409
   8   2.0000      -0.581621       -15.8267
   9   2.0000      -0.536993       -14.6123
  10   2.0000      -0.459656       -12.5079
  11   2.0000      -0.426697       -11.6110
  12   2.0000      -0.410770       -11.1776
  13   2.0000      -0.384962       -10.4754
  14   2.0000      -0.375246       -10.2110
  15   2.0000      -0.339117        -9.2279
  16   2.0000      -0.323993        -8.8163
  17   2.0000      -0.295259        -8.0344
  18   2.0000      -0.293152        -7.9771
  19   2.0000      -0.289089        -7.8665
  20   2.0000      -0.202618        -5.5135
  21   0.0000       0.079556         2.1648
  22   0.0000       0.110850         3.0164
  23   0.0000       0.119250         3.2449
  24   0.0000       0.129576         3.5259
  25   0.0000       0.139774         3.8035

MULLIKEN ATOMIC CHARGES
-----------------------
   0 C :   -0.470915
   1 C :   -0.253534
   2 C :   -0.257466
   3 C :   -0.175995
   4 N :   -0.574267
   5 H :    0.145846
   6 H :    0.136856
   7 H :    0.139504
   8 H :    0.131202
   9 H :    0.171969
  10 H :    0.131557
  11 H :    0.137209
  12 H :    0.137512
  13 H :    0.124049
  14 H :    0.238072
  15 H :    0.238399
Sum of atomic charges:    0.0000000

LOEWDIN ATOMIC CHARGES
----------------------
   0 C :   -0.426557
   1 C :   -0.315773
   2 C :   -0.288778
   3 C :   -0.075514
   4 N :   -0.750574
   5 H :    0.149667
   6 H :    0.147646
   7 H :    0.148124
   8 H :    0.150863
   9 H :    0.164577
  10 H :    0.152912
  11 H :    0.156122
  12 H :    0.169999
  13 H :    0.147274
  14 H :    0.235657
  15 H :    0.234356

  Mayer bond orders larger than 0.100000
B(  0-C ,  1-C ) :   0.8895 B(  0-C ,  5-H ) :   0.9763 B(  0-C ,  6-H ) :   0.9805
B(  0-C ,  7-H ) :   0.9872 B(  1-C ,  2-C ) :   0.9188 B(  1-C ,  8-H ) :   0.9616
B(  1-C ,  9-H ) :   0.9769 B(  2-C ,  3-C ) :   0.9471 B(  2-C , 10-H ) :   0.9858
B(  2-C , 11-H ) :   0.9675 B(  3-C ,  4-N ) :   0.9017 B(  3-C , 12-H ) :   0.9858
B(  3-C , 13-H ) :   0.9626 B(  4-N , 14-H ) :   0.9181 B(  4-N , 15-H ) :   0.9207

Dispersion correction           -0.003411550
FINAL SINGLE POINT ENERGY      -213.723150695735

DIPOLE MOMENT
-------------

Method             : SCF
Type of density    : Electron Density
Multiplicity       :   1
Irrep              :   0
Energy             :  -213.7302298861287682 Eh
Relativity type    :
Basis              : AO
                                X                 Y                 Z
Electronic contribution:     -2.338706242       0.178488140      -0.453429685
Nuclear contribution   :      2.005961178      -0.263881257       0.776882938
                        -----------------------------------------
Total Dipole Moment    :     -0.332745064      -0.085393117       0.323453254
                        -----------------------------------------
Magnitude (a.u.)       :      0.471840301
Magnitude (Debye)      :      1.199322732

Rotational constants in cm-1:             0.398638             0.079555             0.073647
Rotational constants in MHz :         11950.857592          2384.990147          2207.884639

                             ****ORCA TERMINATED NORMALLY****
TOTAL RUN TIME: 0 days 0 hours 0 minutes 17 seconds 731 msec
