                         Program Version 6.0.0  -   RELEASE  -
|  1> ! r2scan-3c def2/J RI DEFGRID2 scfconv6 printgap
|  2> %output
|  3>     printlevel normal
|  4> end
|  5> %cpcm
|  6>     smd true
|  7>     smdsolvent "water"
|  8> end
|  9> * xyz 0 1
| 10> C 2.3926805269 -0.3208104577 -0.1772258075
| 11> C 0.9953750159 0.239930304 -0.4110449565
| 12> C 0.0621758536 -0.0524541301 0.7608697061
| 13> C -1.3590143075 0.4450502572 0.5014857168
| 14> N -1.9479332608 -0.2471656304 -0.6378952668
| 15> H 3.039775053 -0.0956394766 -1.0211544987
| 16> H 2.8326640655 0.1117980709 0.7189321543
| 17> H 2.3546698046 -1.400649041 -0.0521186707
| 18> H 1.0552253418 1.3202153391 -0.5580500728
| 19> H 0.5660255781 -0.194403593 -1.3141999216
| 20> H 0.0345020303 -1.1301511962 0.9400914497
| 21> H 0.4432097927 0.4273483244 1.6647825592
| 22> H -1.3323341042 1.5114414808 0.2589579404
| 23> H -1.95109792 0.3256674517 1.426533635
| 24> H -2.8924742625 0.0856302464 -0.7924357033
| 25> H -2.0006382947 -1.2410926311 -0.4395333396
| 26> *
| 27>
| 28>                          ****END OF INPUT****

CARTESIAN COORDINATES (ANGSTROEM)
---------------------------------
  C      2.392681   -0.320810   -0.177226
  C      0.995375    0.239930   -0.411045
  C      0.062176   -0.052454    0.760870
  C     -1.359014    0.445050    0.501486
  N     -1.947933   -0.247166   -0.637895
  H      3.039775   -0.095639   -1.021154
  H      2.832664    0.111798    0.718932
  H      2.354670   -1.400649   -0.052119
  H      1.055225    1.320215   -0.558050
  H      0.566026   -0.194404   -1.314200
  H      0.034502   -1.130151    0.940091
  H      0.443210    0.427348    1.664783
  H     -1.332334    1.511441    0.258958
  H     -1.951098    0.325667    1.426534
  H     -2.892474    0.085630   -0.792436
  H     -2.000638   -1.241093   -0.439533

 Total Charge           Charge          ....    0
 Multiplicity           Mult            ....    1
 Number of Electrons    NEL             ....   42
 Basis Dimension        Dim             ....  155

ORBITAL ENERGIES
----------------

  NO   OCC          E(Eh)            E(eV)
   0   2.0000     -14.126119      -384.3912
   1   2.0000     -10.040513      -273.2163
   2   2.0000     -10.012996      -272.4675
   3   2.0000     -10.011826      -272.4356
   4   2.0000     -10.006222      -272.2832
   5   2.0000      -0.839097       -22.8330
   6   2.0000      -0.742286       -20.1986
   7   2.0000      -0.665274       -18.1030
   8   2.0000      -0.577067       -15.7028
   9   2.0000      -0.532513       -14.4904
  10   2.0000      -0.452129       -12.3031
  11   2.0000      -0.420911       -11.4536
  12   2.0000      -0.405628       -11.0377
  13   2.0000      -0.380854       -10.3636
  14   2.0000      -0.369979       -10.0676
  15   2.0000      -0.334054        -9.0901
  16   2.0000      -0.318559        -8.6684
  17   2.0000      -0.291980        -7.9452
  18   2.0000      -0.288523        -7.8511
  19   2.0000      -0.285101        -7.7580
  20   2.0000      -0.201115        -5.4726
  21   0.0000       0.091571         2.4918
  22   0.0000       0.114568         3.1175
  23   0.0000       0.126537         3.4433
  24   0.0000       0.139286         3.7902
  25   0.0000       0.143507         3.9050

MULLIKEN ATOMIC CHARGES
-----------------------
   0 C :   -0.513181
   1 C :   -0.271557
   2 C :   -0.256325
   3 C :   -0.200765
   4 N :   -0.658582
   5 H :    0.154663
   6 H :    0.150301
   7 H :    0.152873
   8 H :    0.144821
   9 H :    0.158653
  10 H :    0.147459
  11 H :    0.148278
  12 H :    0.151045
  13 H :    0.132790
  14 H :    0.279214
  15 H :    0.280313
Sum of atomic charges:    0.0000000

LOEWDIN ATOMIC CHARGES
----------------------
   0 C :   -0.434365
   1 C :   -0.320948
   2 C :   -0.291776
   3 C :   -0.077070
   4 N :   -0.770329
   5 H :    0.151404
   6 H :    0.151363
   7 H :    0.151522
   8 H :    0.153168
   9 H :    0.157521
  10 H :    0.158079
  11 H :    0.159494
  12 H :    0.172084
  13 H :    0.151600
  14 H :    0.244514
  15 H :    0.243738

  Mayer bond orders larger than 0.100000
B(  0-C ,  1-C ) :   0.8882 B(  0-C ,  5-H ) :   0.9731 B(  0-C ,  6-H ) :   0.9788
B(  0-C ,  7-H ) :   0.9841 B(  1-C ,  2-C ) :   0.9085 B(  1-C ,  8-H ) :   0.9622
B(  1-C ,  9-H ) :   0.9804 B(  2-C ,  3-C ) :   0.9327 B(  2-C , 10-H ) :   0.9803
B(  2-C , 11-H ) :   0.9653 B(  3-C ,  4-N ) :   0.9120 B(  3-C , 12-H ) :   0.9888
B(  3-C , 13-H ) :   0.9673 B(  4-N , 14-H ) :   0.9020 B(  4-N , 15-H ) :   0.9045

Dispersion correction           -0.003411550
FINAL SINGLE POINT ENERGY      -213.727068221076

DIPOLE MOMENT
-------------

Method             : SCF
Type of density    : Electron Density
Multiplicity       :   1
Irrep              :   0
Energy             :  -213.7341474114695075 Eh
Relativity type    :
Basis              : AO
                                X                 Y                 Z
Electronic contribution:     -2.427653814       0.133808817      -0.272431422
Nuclear contribution   :      2.005961178      -0.263881257       0.776882938
                        -----------------------------------------
Total Dipole Moment    :     -0.421692637      -0.130072440       0.504451517
                        -----------------------------------------
Magnitude (a.u.)       :      0.670234923
Magnitude (Debye)      :      1.703601787

Rotational constants in cm-1:             0.398638             0.079555             0.073647
Rotational constants in MHz :         11950.857592          2384.990147          2207.884639

                             ****ORCA TERMINATED NORMALLY****
TOTAL RUN TIME: 0 days 0 hours 0 minutes 21 seconds 239 msec
