                         Program Version 6.0.0  -   RELEASE  -
|  1> ! pbe def2-sv(p) def2/J RI DEFGRID1 loosescf d4 GCP(DFT/SV(P)) printgap
|  2> %output
|  3>     printlevel normal
|  4> end
|  5> * xyz 0 1
|  6> C 2.1514911145 -1.0127445316 -0.4810644968
|  7> C 2.1078497611 0.4395619872 -0.0147568171
|  8> C 0.9725830258 0.7153108737 0.9832096496
|  9> C -0.2341536847 1.430896793 0.3718011065
| 10> C -0.9562850923 0.6403035087 -0.703980414
| 11> Cl -1.6714560673 -0.8729035509 -0.0377417352
| 12> H 2.3629611959 -1.671726735 0.3586111718
| 13> H 2.9319863009 -1.1498356815 -1.2264237053
| 14> H 1.2040189073 -1.3197301368 -0.9159325409
| 15> H 3.0654935353 0.6738156529 0.4538932932
| 16> H 2.002834402 1.0977502335 -0.8791961012
| 17> H 1.3452805618 1.3426621822 1.7943768568
| 18> H 0.6420441787 -0.2257597725 1.4258514943
| 19> H 0.0948865117 2.3672641914 -0.0840461967
| 20> H -0.9404994217 1.6738893525 1.1678442485
| 21> H -1.7911491851 1.2062416875 -1.11339656
| 22> H -0.2859945746 0.3339927749 -1.5036157931
| 23> *
| 24>
| 25>                          ****END OF INPUT****

CARTESIAN COORDINATES (ANGSTROEM)
---------------------------------
  C      2.151491   -1.012745   -0.481064
  C      2.107850    0.439562   -0.014757
  C      0.972583    0.715311    0.983210
  C     -0.234154    1.430897    0.371801
  C     -0.956285    0.640304   -0.703980
  Cl    -1.671456   -0.872904   -0.037742
  H      2.362961   -1.671727    0.358611
  H      2.931986   -1.149836   -1.226424
  H      1.204019   -1.319730   -0.915933
  H      3.065494    0.673816    0.453893
  H      2.002834    1.097750   -0.879196
  H      1.345281    1.342662    1.794377
  H      0.642044   -0.225760    1.425851
  H      0.094887    2.367264   -0.084046
  H     -0.940499    1.673889    1.167844
  H     -1.791149    1.206242   -1.113397
  H     -0.285995    0.333993   -1.503616

 Total Charge           Charge          ....    0
 Multiplicity           Mult            ....    1
 Number of Electrons    NEL             ....   58
 Basis Dimension        Dim             ....  110

ORBITAL ENERGIES
----------------

  NO   OCC          E(Eh)            E(eV)
   0   2.0000    -100.618564     -2737.9703
   1   2.0000      -9.939311      -270.4624
   2   2.0000      -9.896025      -269.2845
   3   2.0000      -9.884319      -268.9660
   4   2.0000      -9.883083      -268.9324
   5   2.0000      -9.871143      -268.6075
   6   2.0000      -9.154021      -249.0936
   7   2.0000      -6.985498      -190.0851
   8   2.0000      -6.973791      -189.7665
   9   2.0000      -6.973673      -189.7633
  10   2.0000      -0.776875       -21.1398
  11   2.0000      -0.716759       -19.5040
  12   2.0000      -0.664718       -18.0879
  13   2.0000      -0.603050       -16.4098
  14   2.0000      -0.543933       -14.8012
  15   2.0000      -0.504026       -13.7152
  16   2.0000      -0.437960       -11.9175
  17   2.0000      -0.418283       -11.3821
  18   2.0000      -0.393373       -10.7042
  19   2.0000      -0.382596       -10.4110
  20   2.0000      -0.356959        -9.7134
  21   2.0000      -0.351711        -9.5706
  22   2.0000      -0.332836        -9.0569
  23   2.0000      -0.316811        -8.6209
  24   2.0000      -0.290621        -7.9082
  25   2.0000      -0.284056        -7.7296
  26   2.0000      -0.278152        -7.5689
  27   2.0000      -0.245719        -6.6864
  28   2.0000      -0.244581        -6.6554
  29   0.0000       0.012028         0.3273
  30   0.0000       0.034413         0.9364
  31   0.0000       0.058559         1.5935
  32   0.0000       0.063660         1.7323
  33   0.0000       0.080597         2.1931

MULLIKEN ATOMIC CHARGES
-----------------------
   0 C :   -0.295388
   1 C :   -0.194663
   2 C :   -0.156256
   3 C :   -0.165092
   4 C :   -0.180171
   5 Cl:   -0.149499
   6 H :    0.104864
   7 H :    0.099641
   8 H :    0.107445
   9 H :    0.086306
  10 H :    0.085249
  11 H :    0.085429
  12 H :    0.098229
  13 H :    0.096653
  14 H :    0.097889
  15 H :    0.137360
  16 H :    0.142002
Sum of atomic charges:    0.0000000

LOEWDIN ATOMIC CHARGES
----------------------
   0 C :   -0.343569
   1 C :   -0.237875
   2 C :   -0.234505
   3 C :   -0.245614
   4 C :   -0.270432
   5 Cl:    0.024848
   6 H :    0.118978
   7 H :    0.117134
   8 H :    0.113368
   9 H :    0.118149
  10 H :    0.109801
  11 H :    0.119333
  12 H :    0.116519
  13 H :    0.123961
  14 H :    0.121945
  15 H :    0.125405
  16 H :    0.122553

  Mayer bond orders larger than 0.100000
B(  0-C ,  1-C ) :   1.1594 B(  0-C ,  6-H ) :   0.9529 B(  0-C ,  7-H ) :   0.9513
B(  0-C ,  8-H ) :   0.9460 B(  1-C ,  2-C ) :   1.0814 B(  1-C ,  9-H ) :   0.9294
B(  1-C , 10-H ) :   0.9339 B(  2-C ,  3-C ) :   1.1360 B(  2-C , 11-H ) :   0.9245
B(  2-C , 12-H ) :   0.9219 B(  3-C ,  4-C ) :   1.1059 B(  3-C , 13-H ) :   0.9052
B(  3-C , 14-H ) :   0.9174 B(  4-C ,  5-Cl) :   1.0270 B(  4-C , 15-H ) :   0.9313
B(  4-C , 16-H ) :   0.9179

Dispersion correction           -0.013959132
FINAL SINGLE POINT ENERGY      -656.509972681738

DIPOLE MOMENT
-------------

Method             : SCF
Type of density    : Electron Density
Multiplicity       :   1
Irrep              :   0
Energy             :  -656.5673594000647881 Eh
Relativity type    :
Basis              : AO
                                X                 Y                 Z
Electronic contribution:    -11.917284310      -4.632934839       0.270545165
Nuclear contribution   :     12.217913814       5.232537617      -0.439098196
                        -----------------------------------------
Total Dipole Moment    :      0.300629504       0.599602778      -0.168553030
                        -----------------------------------------
Magnitude (a.u.)       :      0.691600834
Magnitude (Debye)      :      1.757909617

Rotational constants in cm-1:             0.131892             0.055933             0.045637
Rotational constants in MHz :          3954.009310          1676.823421          1368.157830

                             ****ORCA TERMINATED NORMALLY****
TOTAL RUN TIME: 0 days 0 hours 0 minutes 7 seconds 437 msec
