                         Program Version 6.0.0  -   RELEASE  -
|  1> ! r2scan-3c def2/J RI DEFGRID2 scfconv6 printgap
|  2> %output
|  3>     printlevel normal
|  4> end
|  5> * xyz 0 1
|  6> C -2.3248382961 -1.250240394 0.7025234343
|  7> C -2.5247830815 0.045639917 -0.0739078529
|  8> C -1.3248866942 0.3539123555 -0.9760472707
|  9> C -0.1006885778 0.6553168083 -0.1505743195
| 10> O -0.0348454866 1.5090666602 0.710690586
| 11> O 0.9157570015 -0.1323421904 -0.4707753314
| 12> C 2.155374159 0.0390723425 0.2370877767
| 13> C 3.047716463 -1.1469418692 -0.0740751629
| 14> H -3.1974054439 -1.4638847036 1.3139573584
| 15> H -2.1655017396 -2.0829871842 0.0217743316
| 16> H -1.4594654701 -1.1707280381 1.3579499671
| 17> H -2.65888827 0.8751555506 0.6230132498
| 18> H -3.4188500481 -0.0317699679 -0.6929442643
| 19> H -1.5413625045 1.2392340949 -1.5760791317
| 20> H -1.1033631234 -0.4857083542 -1.6335634552
| 21> H 2.6077749637 0.9812580231 -0.0889188758
| 22> H 1.9359011289 0.1178879654 1.3070859587
| 23> H 2.5734661556 -2.0673601709 0.2536330596
| 24> H 3.2252302946 -1.2060249631 -1.1436914137
| 25> H 3.9950127282 -1.0286556966 0.4414378871
| 26> *
| 27>
| 28>                          ****END OF INPUT****

CARTESIAN COORDINATES (ANGSTROEM)
---------------------------------
  C     -2.324838   -1.250240    0.702523
  C     -2.524783    0.045640   -0.073908
  C     -1.324887    0.353912   -0.976047
  C     -0.100689    0.655317   -0.150574
  O     -0.034845    1.509067    0.710691
  O      0.915757   -0.132342   -0.470775
  C      2.155374    0.039072    0.237088
  C      3.047716   -1.146942   -0.074075
  H     -3.197405   -1.463885    1.313957
  H     -2.165502   -2.082987    0.021774
  H     -1.459465   -1.170728    1.357950
  H     -2.658888    0.875156    0.623013
  H     -3.418850   -0.031770   -0.692944
  H     -1.541363    1.239234   -1.576079
  H     -1.103363   -0.485708   -1.633563
  H      2.607775    0.981258   -0.088919
  H      1.935901    0.117888    1.307086
  H      2.573466   -2.067360    0.253633
  H      3.225230   -1.206025   -1.143691
  H      3.995013   -1.028656    0.441438

 Total Charge           Charge          ....    0
 Multiplicity           Mult            ....    1
 Number of Electrons    NEL             ....   64
 Basis Dimension        Dim             ....  222

ORBITAL ENERGIES
----------------

  NO   OCC          E(Eh)            E(eV)
   0   2.0000     -18.997194      -516.9399
   1   2.0000     -18.926395      -515.0134
   2   2.0000     -10.150290      -276.2034
   3   2.0000     -10.091339      -274.5993
   4   2.0000     -10.040119      -273.2055
   5   2.0000     -10.033872      -273.0355
   6   2.0000     -10.032300      -272.9928
   7   2.0000     -10.019488      -272.6441
   8   2.0000      -1.071724       -29.1631
   9   2.0000      -0.973730       -26.4965
  10   2.0000      -0.773304       -21.0427
  11   2.0000      -0.743128       -20.2216
  12   2.0000      -0.677637       -18.4394
  13   2.0000      -0.618130       -16.8202
  14   2.0000      -0.565219       -15.3804
  15   2.0000      -0.529365       -14.4048
  16   2.0000      -0.469046       -12.7634
  17   2.0000      -0.464969       -12.6525
  18   2.0000      -0.437148       -11.8954
  19   2.0000      -0.423577       -11.5261
  20   2.0000      -0.407411       -11.0862
  21   2.0000      -0.380427       -10.3519
  22   2.0000      -0.378282       -10.2936
  23   2.0000      -0.366796        -9.9810
  24   2.0000      -0.360704        -9.8153
  25   2.0000      -0.335444        -9.1279
  26   2.0000      -0.322859        -8.7854
  27   2.0000      -0.309458        -8.4208
  28   2.0000      -0.308207        -8.3867
  29   2.0000      -0.306288        -8.3345
  30   2.0000      -0.271445        -7.3864
  31   2.0000      -0.234218        -6.3734
  32   0.0000      -0.014940        -0.4065
  33   0.0000       0.073503         2.0001
  34   0.0000       0.096212         2.6181
  35   0.0000       0.105852         2.8804
  36   0.0000       0.125279         3.4090

MULLIKEN ATOMIC CHARGES
-----------------------
   0 C :   -0.493890
   1 C :   -0.217767
   2 C :   -0.300459
   3 C :    0.332166
   4 O :   -0.421387
   5 O :   -0.158061
   6 C :   -0.154855
   7 C :   -0.440844
   8 H :    0.148628
   9 H :    0.146504
  10 H :    0.155616
  11 H :    0.162175
  12 H :    0.144504
  13 H :    0.165652
  14 H :    0.164073
  15 H :    0.150453
  16 H :    0.165495
  17 H :    0.152632
  18 H :    0.152150
  19 H :    0.147214
Sum of atomic charges:    0.0000000

LOEWDIN ATOMIC CHARGES
----------------------
   0 C :   -0.416900
   1 C :   -0.292919
   2 C :   -0.232665
   3 C :    0.351863
   4 O :   -0.432158
   5 O :   -0.598642
   6 C :    0.032905
   7 C :   -0.386771
   8 H :    0.152778
   9 H :    0.150632
  10 H :    0.155425
  11 H :    0.167409
  12 H :    0.152783
  13 H :    0.181336
  14 H :    0.176644
  15 H :    0.176645
  16 H :    0.183629
  17 H :    0.159237
  18 H :    0.159303
  19 H :    0.159466

  Mayer bond orders larger than 0.100000
B(  0-C ,  1-C ) :   0.9047 B(  0-C ,  8-H ) :   0.9688 B(  0-C ,  9-H ) :   0.9817
B(  0-C , 10-H ) :   0.9733 B(  1-C ,  2-C ) :   0.8867 B(  1-C , 11-H ) :   0.9680
B(  1-C , 12-H ) :   0.9659 B(  2-C ,  3-C ) :   0.9364 B(  2-C , 13-H ) :   0.9388
B(  2-C , 14-H ) :   1.0081 B(  3-C ,  4-O ) :   1.8164 B(  3-C ,  5-O ) :   1.0693
B(  5-O ,  6-C ) :   0.8022 B(  6-C ,  7-C ) :   0.9409 B(  6-C , 15-H ) :   0.9474
B(  6-C , 16-H ) :   0.9596 B(  7-C , 17-H ) :   0.9741 B(  7-C , 18-H ) :   0.9696
B(  7-C , 19-H ) :   0.9683

Dispersion correction           -0.005047442
FINAL SINGLE POINT ENERGY      -386.236433864921

DIPOLE MOMENT
-------------

Method             : SCF
Type of density    : Electron Density
Multiplicity       :   1
Irrep              :   0
Energy             :  -386.2430473886738582 Eh
Relativity type    :
Basis              : AO
                                X                 Y                 Z
Electronic contribution:      1.362422147       5.263207183      -0.593974574
Nuclear contribution   :     -1.119728324      -5.912161105       0.175856200
                        -----------------------------------------
Total Dipole Moment    :      0.242693823      -0.648953922      -0.418118374
                        -----------------------------------------
Magnitude (a.u.)       :      0.809236961
Magnitude (Debye)      :      2.056916890

Rotational constants in cm-1:             0.122095             0.035767             0.032204
Rotational constants in MHz :          3660.322850          1072.271452           965.444529

                             ****ORCA TERMINATED NORMALLY****
TOTAL RUN TIME: 0 days 0 hours 0 minutes 33 seconds 301 msec
