                         Program Version 6.0.0  -   RELEASE  -
|  1> ! r2scan-3c def2/J RI DEFGRID2 scfconv6 printgap
|  2> %output
|  3>     printlevel normal
|  4> end
|  5> %cpcm
|  6>     smd true
|  7>     smdsolvent "water"
|  8> end
|  9> * xyz 0 1
| 10> C -2.3248382961 -1.250240394 0.7025234343
| 11> C -2.5247830815 0.045639917 -0.0739078529
| 12> C -1.3248866942 0.3539123555 -0.9760472707
| 13> C -0.1006885778 0.6553168083 -0.1505743195
| 14> O -0.0348454866 1.5090666602 0.710690586
| 15> O 0.9157570015 -0.1323421904 -0.4707753314
| 16> C 2.155374159 0.0390723425 0.2370877767
| 17> C 3.047716463 -1.1469418692 -0.0740751629
| 18> H -3.1974054439 -1.4638847036 1.3139573584
| 19> H -2.1655017396 -2.0829871842 0.0217743316
| 20> H -1.4594654701 -1.1707280381 1.3579499671
| 21> H -2.65888827 0.8751555506 0.6230132498
| 22> H -3.4188500481 -0.0317699679 -0.6929442643
| 23> H -1.5413625045 1.2392340949 -1.5760791317
| 24> H -1.1033631234 -0.4857083542 -1.6335634552
| 25> H 2.6077749637 0.9812580231 -0.0889188758
| 26> H 1.9359011289 0.1178879654 1.3070859587
| 27> H 2.5734661556 -2.0673601709 0.2536330596
| 28> H 3.2252302946 -1.2060249631 -1.1436914137
| 29> H 3.9950127282 -1.0286556966 0.4414378871
| 30> *
| 31>
| 32>                          ****END OF INPUT****

CARTESIAN COORDINATES (ANGSTROEM)
---------------------------------
  C     -2.324838   -1.250240    0.702523
  C     -2.524783    0.045640   -0.073908
  C     -1.324887    0.353912   -0.976047
  C     -0.100689    0.655317   -0.150574
  O     -0.034845    1.509067    0.710691
  O      0.915757   -0.132342   -0.470775
  C      2.155374    0.039072    0.237088
  C      3.047716   -1.146942   -0.074075
  H     -3.197405   -1.463885    1.313957
  H     -2.165502   -2.082987    0.021774
  H     -1.459465   -1.170728    1.357950
  H     -2.658888    0.875156    0.623013
  H     -3.418850   -0.031770   -0.692944
  H     -1.541363    1.239234   -1.576079
  H     -1.103363   -0.485708   -1.633563
  H      2.607775    0.981258   -0.088919
  H      1.935901    0.117888    1.307086
  H      2.573466   -2.067360    0.253633
  H      3.225230   -1.206025   -1.143691
  H      3.995013   -1.028656    0.441438

 Total Charge           Charge          ....    0
 Multiplicity           Mult            ....    1
 Number of Electrons    NEL             ....   64
 Basis Dimension        Dim             ....  222

ORBITAL ENERGIES
----------------

  NO   OCC          E(Eh)            E(eV)
   0   2.0000     -19.003485      -517.1111
   1   2.0000     -18.943358      -515.4750
   2   2.0000     -10.161900      -276.5194
   3   2.0000     -10.083778      -274.3935
   4   2.0000     -10.035165      -273.0707
   5   2.0000     -10.028192      -272.8810
   6   2.0000     -10.018899      -272.6281
   7   2.0000     -10.011558      -272.4283
   8   2.0000      -1.079748       -29.3814
   9   2.0000      -0.988442       -26.8969
  10   2.0000      -0.769530       -20.9400
  11   2.0000      -0.735735       -20.0204
  12   2.0000      -0.672091       -18.2885
  13   2.0000      -0.611880       -16.6501
  14   2.0000      -0.559091       -15.2136
  15   2.0000      -0.528720       -14.3872
  16   2.0000      -0.472051       -12.8452
  17   2.0000      -0.464166       -12.6306
  18   2.0000      -0.445975       -12.1356
  19   2.0000      -0.420647       -11.4464
  20   2.0000      -0.404878       -11.0173
  21   2.0000      -0.378000       -10.2859
  22   2.0000      -0.369107       -10.0439
  23   2.0000      -0.361076        -9.8254
  24   2.0000      -0.355961        -9.6862
  25   2.0000      -0.330731        -8.9996
  26   2.0000      -0.319378        -8.6907
  27   2.0000      -0.304572        -8.2878
  28   2.0000      -0.304065        -8.2740
  29   2.0000      -0.303443        -8.2571
  30   2.0000      -0.278253        -7.5717
  31   2.0000      -0.251729        -6.8499
  32   0.0000      -0.023687        -0.6446
  33   0.0000       0.076201         2.0735
  34   0.0000       0.104178         2.8348
  35   0.0000       0.115780         3.1505
  36   0.0000       0.132512         3.6058

MULLIKEN ATOMIC CHARGES
-----------------------
   0 C :   -0.529766
   1 C :   -0.224988
   2 C :   -0.315640
   3 C :    0.376891
   4 O :   -0.508633
   5 O :   -0.175766
   6 C :   -0.156718
   7 C :   -0.488918
   8 H :    0.161431
   9 H :    0.162556
  10 H :    0.162497
  11 H :    0.155518
  12 H :    0.163822
  13 H :    0.193695
  14 H :    0.179851
  15 H :    0.172568
  16 H :    0.172490
  17 H :    0.165650
  18 H :    0.164583
  19 H :    0.168877
Sum of atomic charges:    0.0000000

LOEWDIN ATOMIC CHARGES
----------------------
   0 C :   -0.423865
   1 C :   -0.292214
   2 C :   -0.229568
   3 C :    0.361994
   4 O :   -0.494004
   5 O :   -0.599888
   6 C :    0.035519
   7 C :   -0.389685
   8 H :    0.156195
   9 H :    0.155926
  10 H :    0.156115
  11 H :    0.163335
  12 H :    0.160413
  13 H :    0.191289
  14 H :    0.184441
  15 H :    0.183998
  16 H :    0.186677
  17 H :    0.162461
  18 H :    0.162648
  19 H :    0.168215

  Mayer bond orders larger than 0.100000
B(  0-C ,  1-C ) :   0.8976 B(  0-C ,  8-H ) :   0.9657 B(  0-C ,  9-H ) :   0.9780
B(  0-C , 10-H ) :   0.9707 B(  1-C ,  2-C ) :   0.8734 B(  1-C , 11-H ) :   0.9723
B(  1-C , 12-H ) :   0.9616 B(  2-C ,  3-C ) :   0.9392 B(  2-C , 13-H ) :   0.9313
B(  2-C , 14-H ) :   0.9974 B(  3-C ,  4-O ) :   1.7456 B(  3-C ,  5-O ) :   1.0955
B(  5-O ,  6-C ) :   0.7892 B(  6-C ,  7-C ) :   0.9417 B(  6-C , 15-H ) :   0.9387
B(  6-C , 16-H ) :   0.9532 B(  7-C , 17-H ) :   0.9727 B(  7-C , 18-H ) :   0.9671
B(  7-C , 19-H ) :   0.9617

Dispersion correction           -0.005047442
FINAL SINGLE POINT ENERGY      -386.242007867434

DIPOLE MOMENT
-------------

Method             : SCF
Type of density    : Electron Density
Multiplicity       :   1
Irrep              :   0
Energy             :  -386.2486213911869868 Eh
Relativity type    :
Basis              : AO
                                X                 Y                 Z
Electronic contribution:      1.424123231       5.005528613      -0.820380072
Nuclear contribution   :     -1.119728324      -5.912161105       0.175856200
                        -----------------------------------------
Total Dipole Moment    :      0.304394908      -0.906632492      -0.644523872
                        -----------------------------------------
Magnitude (a.u.)       :      1.153277831
Magnitude (Debye)      :      2.931399285

Rotational constants in cm-1:             0.122095             0.035767             0.032204
Rotational constants in MHz :          3660.322850          1072.271452           965.444529

                             ****ORCA TERMINATED NORMALLY****
TOTAL RUN TIME: 0 days 0 hours 0 minutes 38 seconds 947 msec
