                         Program Version 6.0.0  -   RELEASE  -
|  1> ! r2scan-3c def2/J RI DEFGRID2 scfconv6 printgap
|  2> %output
|  3>     printlevel normal
|  4> end
|  5> * xyz 0 1
|  6> C -2.1864061061 -1.3983022137 0.9264319288
|  7> C -2.1308911874 -0.563106213 -0.3472032889
|  8> C -1.5182956218 0.8262181173 -0.1293118617
|  9> C -0.0106140711 0.8568301517 -0.147427173
| 10> O 0.6324227133 1.7356362194 -0.6882620052
| 11> O 0.5443981694 -0.1544888309 0.5033173526
| 12> C 1.9780555076 -0.241127131 0.5379749115
| 13> C 2.5098755561 -0.9900256805 -0.6744440885
| 14> H -1.1902347485 -1.546136124 1.3314589436
| 15> H -2.7968731759 -0.9028062448 1.67764756
| 16> H -2.6239606771 -2.3706960727 0.7155066984
| 17> H -3.1455660276 -0.4272791295 -0.7247875933
| 18> H -1.560816362 -1.0937335096 -1.1117453384
| 19> H -1.8396296141 1.2179440156 0.8386118541
| 20> H -1.8501392887 1.5225455263 -0.9005552968
| 21> H 2.3886701766 0.7724205173 0.575405448
| 22> H 2.2005498544 -0.7745812029 1.462627714
| 23> H 3.5867238632 -1.0933601078 -0.5898120649
| 24> H 2.0580551504 -1.9765701688 -0.7339571706
| 25> H 2.2787512375 -0.4382239885 -1.5830318571
| 26> *
| 27>
| 28>                          ****END OF INPUT****

CARTESIAN COORDINATES (ANGSTROEM)
---------------------------------
  C     -2.186406   -1.398302    0.926432
  C     -2.130891   -0.563106   -0.347203
  C     -1.518296    0.826218   -0.129312
  C     -0.010614    0.856830   -0.147427
  O      0.632423    1.735636   -0.688262
  O      0.544398   -0.154489    0.503317
  C      1.978056   -0.241127    0.537975
  C      2.509876   -0.990026   -0.674444
  H     -1.190235   -1.546136    1.331459
  H     -2.796873   -0.902806    1.677648
  H     -2.623961   -2.370696    0.715507
  H     -3.145566   -0.427279   -0.724788
  H     -1.560816   -1.093734   -1.111745
  H     -1.839630    1.217944    0.838612
  H     -1.850139    1.522546   -0.900555
  H      2.388670    0.772421    0.575405
  H      2.200550   -0.774581    1.462628
  H      3.586724   -1.093360   -0.589812
  H      2.058055   -1.976570   -0.733957
  H      2.278751   -0.438224   -1.583032

 Total Charge           Charge          ....    0
 Multiplicity           Mult            ....    1
 Number of Electrons    NEL             ....   64
 Basis Dimension        Dim             ....  222

ORBITAL ENERGIES
----------------

  NO   OCC          E(Eh)            E(eV)
   0   2.0000     -18.997973      -516.9611
   1   2.0000     -18.925992      -515.0024
   2   2.0000     -10.152126      -276.2534
   3   2.0000     -10.092190      -274.6224
   4   2.0000     -10.041819      -273.2518
   5   2.0000     -10.036246      -273.1001
   6   2.0000     -10.029816      -272.9252
   7   2.0000     -10.016031      -272.5501
   8   2.0000      -1.073130       -29.2013
   9   2.0000      -0.973821       -26.4990
  10   2.0000      -0.774206       -21.0672
  11   2.0000      -0.737903       -20.0794
  12   2.0000      -0.677875       -18.4459
  13   2.0000      -0.625234       -17.0135
  14   2.0000      -0.570733       -15.5304
  15   2.0000      -0.523499       -14.2451
  16   2.0000      -0.475680       -12.9439
  17   2.0000      -0.455603       -12.3976
  18   2.0000      -0.434370       -11.8198
  19   2.0000      -0.417282       -11.3548
  20   2.0000      -0.409358       -11.1392
  21   2.0000      -0.390423       -10.6240
  22   2.0000      -0.383370       -10.4320
  23   2.0000      -0.368461       -10.0263
  24   2.0000      -0.348577        -9.4853
  25   2.0000      -0.344829        -9.3833
  26   2.0000      -0.323512        -8.8032
  27   2.0000      -0.311715        -8.4822
  28   2.0000      -0.310088        -8.4379
  29   2.0000      -0.297558        -8.0970
  30   2.0000      -0.271472        -7.3871
  31   2.0000      -0.232293        -6.3210
  32   0.0000      -0.014021        -0.3815
  33   0.0000       0.072787         1.9806
  34   0.0000       0.088300         2.4028
  35   0.0000       0.110415         3.0045
  36   0.0000       0.112305         3.0560

MULLIKEN ATOMIC CHARGES
-----------------------
   0 C :   -0.518038
   1 C :   -0.201688
   2 C :   -0.295756
   3 C :    0.325628
   4 O :   -0.425821
   5 O :   -0.145324
   6 C :   -0.147055
   7 C :   -0.464818
   8 H :    0.173213
   9 H :    0.140158
  10 H :    0.144448
  11 H :    0.145816
  12 H :    0.140005
  13 H :    0.165900
  14 H :    0.172796
  15 H :    0.171350
  16 H :    0.147921
  17 H :    0.147488
  18 H :    0.151563
  19 H :    0.172213
Sum of atomic charges:   -0.0000000

LOEWDIN ATOMIC CHARGES
----------------------
   0 C :   -0.421666
   1 C :   -0.295615
   2 C :   -0.229772
   3 C :    0.361066
   4 O :   -0.437347
   5 O :   -0.604697
   6 C :    0.028408
   7 C :   -0.390004
   8 H :    0.166430
   9 H :    0.148728
  10 H :    0.150064
  11 H :    0.154110
  12 H :    0.159128
  13 H :    0.182141
  14 H :    0.180608
  15 H :    0.189855
  16 H :    0.177190
  17 H :    0.159508
  18 H :    0.156661
  19 H :    0.165205

  Mayer bond orders larger than 0.100000
B(  0-C ,  1-C ) :   0.9031 B(  0-C ,  8-H ) :   0.9829 B(  0-C ,  9-H ) :   0.9788
B(  0-C , 10-H ) :   0.9709 B(  1-C ,  2-C ) :   0.8639 B(  1-C , 11-H ) :   0.9626
B(  1-C , 12-H ) :   0.9788 B(  2-C ,  3-C ) :   1.0140 B(  2-C , 13-H ) :   0.9419
B(  2-C , 14-H ) :   0.9674 B(  3-C ,  4-O ) :   1.8447 B(  3-C ,  5-O ) :   1.0757
B(  5-O ,  6-C ) :   0.8093 B(  6-C ,  7-C ) :   0.9333 B(  6-C , 15-H ) :   0.9686
B(  6-C , 16-H ) :   0.9623 B(  7-C , 17-H ) :   0.9650 B(  7-C , 18-H ) :   0.9739
B(  7-C , 19-H ) :   0.9720

Dispersion correction           -0.005238575
FINAL SINGLE POINT ENERGY      -386.232984399806

DIPOLE MOMENT
-------------

Method             : SCF
Type of density    : Electron Density
Multiplicity       :   1
Irrep              :   0
Energy             :  -386.2396340660282590 Eh
Relativity type    :
Basis              : AO
                                X                 Y                 Z
Electronic contribution:      2.237140047       5.898453916      -0.550579011
Nuclear contribution   :     -2.322778225      -6.647366738       0.895429228
                        -----------------------------------------
Total Dipole Moment    :     -0.085638178      -0.748912822       0.344850217
                        -----------------------------------------
Magnitude (a.u.)       :      0.828930627
Magnitude (Debye)      :      2.106974211

Rotational constants in cm-1:             0.100089             0.044250             0.035038
Rotational constants in MHz :          3000.602066          1326.596284          1050.419487

                             ****ORCA TERMINATED NORMALLY****
TOTAL RUN TIME: 0 days 0 hours 0 minutes 30 seconds 803 msec
