                         Program Version 6.0.0  -   RELEASE  -
|  1> ! r2scan-3c def2/J RI DEFGRID2 scfconv6 printgap
|  2> %output
|  3>     printlevel normal
|  4> end
|  5> %cpcm
|  6>     smd true
|  7>     smdsolvent "water"
|  8> end
|  9> * xyz 0 1
| 10> C -2.1864061061 -1.3983022137 0.9264319288
| 11> C -2.1308911874 -0.563106213 -0.3472032889
| 12> C -1.5182956218 0.8262181173 -0.1293118617
| 13> C -0.0106140711 0.8568301517 -0.147427173
| 14> O 0.6324227133 1.7356362194 -0.6882620052
| 15> O 0.5443981694 -0.1544888309 0.5033173526
| 16> C 1.9780555076 -0.241127131 0.5379749115
| 17> C 2.5098755561 -0.9900256805 -0.6744440885
| 18> H -1.1902347485 -1.546136124 1.3314589436
| 19> H -2.7968731759 -0.9028062448 1.67764756
| 20> H -2.6239606771 -2.3706960727 0.7155066984
| 21> H -3.1455660276 -0.4272791295 -0.7247875933
| 22> H -1.560816362 -1.0937335096 -1.1117453384
| 23> H -1.8396296141 1.2179440156 0.8386118541
| 24> H -1.8501392887 1.5225455263 -0.9005552968
| 25> H 2.3886701766 0.7724205173 0.575405448
| 26> H 2.2005498544 -0.7745812029 1.462627714
| 27> H 3.5867238632 -1.0933601078 -0.5898120649
| 28> H 2.0580551504 -1.9765701688 -0.7339571706
| 29> H 2.2787512375 -0.4382239885 -1.5830318571
| 30> *
| 31>
| 32>                          ****END OF INPUT****

CARTESIAN COORDINATES (ANGSTROEM)
---------------------------------
  C     -2.186406   -1.398302    0.926432
  C     -2.130891   -0.563106   -0.347203
  C     -1.518296    0.826218   -0.129312
  C     -0.010614    0.856830   -0.147427
  O      0.632423    1.735636   -0.688262
  O      0.544398   -0.154489    0.503317
  C      1.978056   -0.241127    0.537975
  C      2.509876   -0.990026   -0.674444
  H     -1.190235   -1.546136    1.331459
  H     -2.796873   -0.902806    1.677648
  H     -2.623961   -2.370696    0.715507
  H     -3.145566   -0.427279   -0.724788
  H     -1.560816   -1.093734   -1.111745
  H     -1.839630    1.217944    0.838612
  H     -1.850139    1.522546   -0.900555
  H      2.388670    0.772421    0.575405
  H      2.200550   -0.774581    1.462628
  H      3.586724   -1.093360   -0.589812
  H      2.058055   -1.976570   -0.733957
  H      2.278751   -0.438224   -1.583032

 Total Charge           Charge          ....    0
 Multiplicity           Mult            ....    1
 Number of Electrons    NEL             ....   64
 Basis Dimension        Dim             ....  222

ORBITAL ENERGIES
----------------

  NO   OCC          E(Eh)            E(eV)
   0   2.0000     -19.001619      -517.0603
   1   2.0000     -18.941183      -515.4158
   2   2.0000     -10.161926      -276.5201
   3   2.0000     -10.083180      -274.3773
   4   2.0000     -10.035586      -273.0822
   5   2.0000     -10.026909      -272.8461
   6   2.0000     -10.018273      -272.6111
   7   2.0000     -10.007673      -272.3226
   8   2.0000      -1.078788       -29.3553
   9   2.0000      -0.986786       -26.8518
  10   2.0000      -0.768240       -20.9049
  11   2.0000      -0.729646       -19.8547
  12   2.0000      -0.671970       -18.2852
  13   2.0000      -0.618830       -16.8392
  14   2.0000      -0.563523       -15.3342
  15   2.0000      -0.519879       -14.1466
  16   2.0000      -0.471860       -12.8400
  17   2.0000      -0.460634       -12.5345
  18   2.0000      -0.440132       -11.9766
  19   2.0000      -0.411358       -11.1936
  20   2.0000      -0.404935       -11.0188
  21   2.0000      -0.386375       -10.5138
  22   2.0000      -0.377296       -10.2668
  23   2.0000      -0.360334        -9.8052
  24   2.0000      -0.346509        -9.4290
  25   2.0000      -0.339947        -9.2504
  26   2.0000      -0.316520        -8.6129
  27   2.0000      -0.303805        -8.2670
  28   2.0000      -0.302906        -8.2425
  29   2.0000      -0.294078        -8.0023
  30   2.0000      -0.277254        -7.5445
  31   2.0000      -0.247364        -6.7311
  32   0.0000      -0.021253        -0.5783
  33   0.0000       0.077991         2.1223
  34   0.0000       0.095694         2.6040
  35   0.0000       0.118712         3.2303
  36   0.0000       0.122007         3.3200

MULLIKEN ATOMIC CHARGES
-----------------------
   0 C :   -0.551432
   1 C :   -0.218466
   2 C :   -0.311164
   3 C :    0.368147
   4 O :   -0.513813
   5 O :   -0.159401
   6 C :   -0.150974
   7 C :   -0.490388
   8 H :    0.169515
   9 H :    0.156537
  10 H :    0.156982
  11 H :    0.161636
  12 H :    0.154558
  13 H :    0.197364
  14 H :    0.180223
  15 H :    0.172463
  16 H :    0.173939
  17 H :    0.170217
  18 H :    0.165929
  19 H :    0.168128
Sum of atomic charges:   -0.0000000

LOEWDIN ATOMIC CHARGES
----------------------
   0 C :   -0.428074
   1 C :   -0.293855
   2 C :   -0.228033
   3 C :    0.371020
   4 O :   -0.500809
   5 O :   -0.602287
   6 C :    0.033093
   7 C :   -0.392924
   8 H :    0.163310
   9 H :    0.153544
  10 H :    0.153432
  11 H :    0.160440
  12 H :    0.162567
  13 H :    0.194179
  14 H :    0.183914
  15 H :    0.190024
  16 H :    0.188561
  17 H :    0.167743
  18 H :    0.161823
  19 H :    0.162335

  Mayer bond orders larger than 0.100000
B(  0-C ,  1-C ) :   0.8979 B(  0-C ,  8-H ) :   0.9824 B(  0-C ,  9-H ) :   0.9757
B(  0-C , 10-H ) :   0.9686 B(  1-C ,  2-C ) :   0.8515 B(  1-C , 11-H ) :   0.9590
B(  1-C , 12-H ) :   0.9807 B(  2-C ,  3-C ) :   1.0109 B(  2-C , 13-H ) :   0.9302
B(  2-C , 14-H ) :   0.9648 B(  3-C ,  4-O ) :   1.7737 B(  3-C ,  5-O ) :   1.1050
B(  5-O ,  6-C ) :   0.7926 B(  6-C ,  7-C ) :   0.9326 B(  6-C , 15-H ) :   0.9651
B(  6-C , 16-H ) :   0.9530 B(  7-C , 17-H ) :   0.9602 B(  7-C , 18-H ) :   0.9699
B(  7-C , 19-H ) :   0.9699

Dispersion correction           -0.005238575
FINAL SINGLE POINT ENERGY      -386.237686014629

DIPOLE MOMENT
-------------

Method             : SCF
Type of density    : Electron Density
Multiplicity       :   1
Irrep              :   0
Energy             :  -386.2443356808514068 Eh
Relativity type    :
Basis              : AO
                                X                 Y                 Z
Electronic contribution:      2.124136599       5.604025545      -0.371542388
Nuclear contribution   :     -2.322778225      -6.647366738       0.895429228
                        -----------------------------------------
Total Dipole Moment    :     -0.198641625      -1.043341193       0.523886840
                        -----------------------------------------
Magnitude (a.u.)       :      1.184262117
Magnitude (Debye)      :      3.010155080

Rotational constants in cm-1:             0.100089             0.044250             0.035038
Rotational constants in MHz :          3000.602066          1326.596284          1050.419487

                             ****ORCA TERMINATED NORMALLY****
TOTAL RUN TIME: 0 days 0 hours 0 minutes 35 seconds 26 msec
