                         Program Version 6.0.0  -   RELEASE  -
|  1> ! r2scan-3c def2/J RI DEFGRID2 scfconv6 printgap
|  2> %output
|  3>     printlevel normal
|  4> end
|  5> * xyz 0 1
|  6> C -3.6735330192 0.1712723418 1.8438304344
|  7> C -3.0525993915 0.6222137952 0.5213497914
|  8> H -3.0895686678 1.7125362286 0.4414414214
|  9> C -1.608317801 0.1803091508 0.392637825
| 10> C -1.2819532 -1.1909623896 0.4333396936
| 11> C 0.0133988412 -1.6068118521 0.3269285314
| 12> C 1.0638731192 -0.6757490522 0.1717556426
| 13> C 2.4061650866 -1.0707298853 0.0600377337
| 14> C 3.4106470035 -0.140011191 -0.0941095722
| 15> C 3.0889730017 1.2311782591 -0.1408502553
| 16> C 1.786859257 1.6349401212 -0.0334489537
| 17> C 0.7406341291 0.7058676527 0.1244542958
| 18> C -0.6078389096 1.1022236475 0.2342178218
| 19> O 4.6802190644 -0.6328873806 -0.1929997483
| 20> C 5.75755287 0.2712477042 -0.3491943385
| 21> C -3.7835830229 0.071680156 -0.6840229552
| 22> O -3.9245085915 0.6894525408 -1.7202139198
| 23> O -4.2269124922 -1.1614518595 -0.5282542218
| 24> H -3.6846980644 -0.9114980603 1.9170714005
| 25> H -3.0922124657 0.573653257 2.6687764796
| 26> H -4.6945855787 0.5361140394 1.9209372711
| 27> H -2.0734857572 -1.9163203887 0.5427162387
| 28> H 0.2547626101 -2.658782385 0.3577111415
| 29> H 2.6666768042 -2.1173259819 0.0938786108
| 30> H 3.8653592344 1.9691314394 -0.2618255866
| 31> H 1.5463262383 2.6871156636 -0.0705922055
| 32> H -0.8391978349 2.1569928471 0.1922691528
| 33> H 5.6610306595 0.8475991967 -1.2729812706
| 34> H 6.6466265718 -0.3532257874 -0.400979769
| 35> H 5.8347164171 0.9476080387 0.5060094127
| 36> H -4.669027714 -1.5060126257 -1.3283137965
| 37> *
| 38>
| 39>                          ****END OF INPUT****

CARTESIAN COORDINATES (ANGSTROEM)
---------------------------------
  C     -3.673533    0.171272    1.843830
  C     -3.052599    0.622214    0.521350
  H     -3.089569    1.712536    0.441441
  C     -1.608318    0.180309    0.392638
  C     -1.281953   -1.190962    0.433340
  C      0.013399   -1.606812    0.326929
  C      1.063873   -0.675749    0.171756
  C      2.406165   -1.070730    0.060038
  C      3.410647   -0.140011   -0.094110
  C      3.088973    1.231178   -0.140850
  C      1.786859    1.634940   -0.033449
  C      0.740634    0.705868    0.124454
  C     -0.607839    1.102224    0.234218
  O      4.680219   -0.632887   -0.193000
  C      5.757553    0.271248   -0.349194
  C     -3.783583    0.071680   -0.684023
  O     -3.924509    0.689453   -1.720214
  O     -4.226912   -1.161452   -0.528254
  H     -3.684698   -0.911498    1.917071
  H     -3.092212    0.573653    2.668776
  H     -4.694586    0.536114    1.920937
  H     -2.073486   -1.916320    0.542716
  H      0.254763   -2.658782    0.357711
  H      2.666677   -2.117326    0.093879
  H      3.865359    1.969131   -0.261826
  H      1.546326    2.687116   -0.070592
  H     -0.839198    2.156993    0.192269
  H      5.661031    0.847599   -1.272981
  H      6.646627   -0.353226   -0.400980
  H      5.834716    0.947608    0.506009
  H     -4.669028   -1.506013   -1.328314

 Total Charge           Charge          ....    0
 Multiplicity           Mult            ....    1
 Number of Electrons    NEL             ....  122
 Basis Dimension        Dim             ....  408

ORBITAL ENERGIES
----------------

  NO   OCC          E(Eh)            E(eV)
   0   2.0000     -19.007664      -517.2248
   1   2.0000     -18.988156      -516.6940
   2   2.0000     -18.930330      -515.1205
   3   2.0000     -10.160416      -276.4790
   4   2.0000     -10.098539      -274.7952
   5   2.0000     -10.090212      -274.5686
   6   2.0000     -10.059283      -273.7270
   7   2.0000     -10.047711      -273.4121
   8   2.0000     -10.046228      -273.3718
   9   2.0000     -10.042678      -273.2752
  10   2.0000     -10.042144      -273.2606
  11   2.0000     -10.041138      -273.2333
  12   2.0000     -10.036078      -273.0956
  13   2.0000     -10.035730      -273.0861
  14   2.0000     -10.035080      -273.0684
  15   2.0000     -10.030119      -272.9334
  16   2.0000     -10.029763      -272.9237
  17   2.0000      -1.081346       -29.4249
  18   2.0000      -1.035425       -28.1754
  19   2.0000      -0.976873       -26.5821
  20   2.0000      -0.849525       -23.1168
  21   2.0000      -0.808722       -22.0064
  22   2.0000      -0.767132       -20.8747
  23   2.0000      -0.746643       -20.3172
  24   2.0000      -0.709608       -19.3094
  25   2.0000      -0.703854       -19.1529
  26   2.0000      -0.661907       -18.0114
  27   2.0000      -0.640336       -17.4244
  28   2.0000      -0.602929       -16.4065
  29   2.0000      -0.595816       -16.2130
  30   2.0000      -0.571811       -15.5598
  31   2.0000      -0.557007       -15.1569
  32   2.0000      -0.506528       -13.7833
  33   2.0000      -0.486891       -13.2490
  34   2.0000      -0.484399       -13.1812
  35   2.0000      -0.452361       -12.3094
  36   2.0000      -0.445495       -12.1225
  37   2.0000      -0.441352       -12.0098
  38   2.0000      -0.438731       -11.9385
  39   2.0000      -0.438147       -11.9226
  40   2.0000      -0.416562       -11.3352
  41   2.0000      -0.413983       -11.2651
  42   2.0000      -0.396182       -10.7807
  43   2.0000      -0.388994       -10.5851
  44   2.0000      -0.381797       -10.3892
  45   2.0000      -0.377595       -10.2749
  46   2.0000      -0.372055       -10.1241
  47   2.0000      -0.360847        -9.8191
  48   2.0000      -0.358950        -9.7675
  49   2.0000      -0.348332        -9.4786
  50   2.0000      -0.331811        -9.0290
  51   2.0000      -0.327536        -8.9127
  52   2.0000      -0.313924        -8.5423
  53   2.0000      -0.310820        -8.4579
  54   2.0000      -0.294922        -8.0252
  55   2.0000      -0.288341        -7.8462
  56   2.0000      -0.284441        -7.7400
  57   2.0000      -0.261412        -7.1134
  58   2.0000      -0.235899        -6.4191
  59   2.0000      -0.221657        -6.0316
  60   2.0000      -0.189736        -5.1630
  61   0.0000      -0.068225        -1.8565
  62   0.0000      -0.036371        -0.9897
  63   0.0000      -0.013472        -0.3666
  64   0.0000      -0.000412        -0.0112
  65   0.0000       0.050496         1.3741

MULLIKEN ATOMIC CHARGES
-----------------------
   0 C :   -0.491573
   1 C :   -0.062099
   2 H :    0.157498
   3 C :    0.167579
   4 C :   -0.212629
   5 C :   -0.299464
   6 C :    0.262121
   7 C :   -0.403823
   8 C :    0.340861
   9 C :   -0.282863
  10 C :   -0.271728
  11 C :    0.164941
  12 C :   -0.291245
  13 O :   -0.180962
  14 C :   -0.333329
  15 C :    0.281979
  16 O :   -0.377817
  17 O :   -0.332059
  18 H :    0.168363
  19 H :    0.157707
  20 H :    0.152467
  21 H :    0.165805
  22 H :    0.140793
  23 H :    0.154452
  24 H :    0.147132
  25 H :    0.142466
  26 H :    0.141248
  27 H :    0.153306
  28 H :    0.155868
  29 H :    0.152862
  30 H :    0.332139
Sum of atomic charges:   -0.0000000

LOEWDIN ATOMIC CHARGES
----------------------
   0 C :   -0.374816
   1 C :   -0.143891
   2 H :    0.187999
   3 C :   -0.075276
   4 C :   -0.144090
   5 C :   -0.140886
   6 C :   -0.048202
   7 C :   -0.119584
   8 C :    0.190503
   9 C :   -0.159757
  10 C :   -0.130593
  11 C :   -0.064674
  12 C :   -0.125696
  13 O :   -0.682527
  14 C :   -0.055779
  15 C :    0.350628
  16 O :   -0.412814
  17 O :   -0.408210
  18 H :    0.167878
  19 H :    0.160771
  20 H :    0.159213
  21 H :    0.181231
  22 H :    0.171081
  23 H :    0.184001
  24 H :    0.176122
  25 H :    0.171949
  26 H :    0.173877
  27 H :    0.164436
  28 H :    0.181039
  29 H :    0.164257
  30 H :    0.301813

  Mayer bond orders larger than 0.100000
B(  0-C ,  1-C ) :   0.9259 B(  0-C , 18-H ) :   0.9631 B(  0-C , 19-H ) :   0.9726
B(  0-C , 20-H ) :   0.9732 B(  1-C ,  2-H ) :   0.9661 B(  1-C ,  3-C ) :   0.8011
B(  1-C , 15-C ) :   0.9833 B(  3-C ,  4-C ) :   1.2297 B(  3-C , 12-C ) :   1.5208
B(  4-C ,  5-C ) :   1.5170 B(  4-C , 21-H ) :   0.9265 B(  5-C ,  6-C ) :   1.1741
B(  5-C , 22-H ) :   0.9616 B(  6-C ,  7-C ) :   1.1474 B(  6-C , 11-C ) :   1.4743
B(  7-C ,  8-C ) :   1.4989 B(  7-C , 23-H ) :   0.9437 B(  8-C ,  9-C ) :   1.2426
B(  8-C , 13-O ) :   1.0524 B(  9-C , 10-C ) :   1.4706 B(  9-C , 24-H ) :   0.9178
B( 10-C , 11-C ) :   1.2349 B( 10-C , 25-H ) :   0.9513 B( 11-C , 12-C ) :   1.2247
B( 12-C , 26-H ) :   0.9339 B( 13-O , 14-C ) :   0.8522 B( 14-C , 27-H ) :   0.9639
B( 14-C , 28-H ) :   0.9678 B( 14-C , 29-H ) :   0.9641 B( 15-C , 16-O ) :   1.9542
B( 15-C , 17-O ) :   1.0304 B( 17-O , 30-H ) :   0.8578

Dispersion correction           -0.013047328
FINAL SINGLE POINT ENERGY      -767.444099289829

DIPOLE MOMENT
-------------

Method             : SCF
Type of density    : Electron Density
Multiplicity       :   1
Irrep              :   0
Energy             :  -767.4447558433485028 Eh
Relativity type    :
Basis              : AO
                                X                 Y                 Z
Electronic contribution:     -3.443282880      -1.916000338      -4.434681324
Nuclear contribution   :      4.013417117       1.829565241       4.941881381
                        -----------------------------------------
Total Dipole Moment    :      0.570134237      -0.086435097       0.507200057
                        -----------------------------------------
Magnitude (a.u.)       :      0.767968731
Magnitude (Debye)      :      1.952021384

Rotational constants in cm-1:             0.048296             0.006713             0.006473
Rotational constants in MHz :          1447.873222           201.251966           194.050924

                             ****ORCA TERMINATED NORMALLY****
TOTAL RUN TIME: 0 days 0 hours 1 minutes 26 seconds 357 msec
