                         Program Version 6.0.0  -   RELEASE  -
|  1> ! r2scan-3c def2/J RI DEFGRID2 scfconv6 printgap
|  2> %output
|  3>     printlevel normal
|  4> end
|  5> %cpcm
|  6>     smd true
|  7>     smdsolvent "water"
|  8> end
|  9> * xyz 0 1
| 10> C -3.6735330192 0.1712723418 1.8438304344
| 11> C -3.0525993915 0.6222137952 0.5213497914
| 12> H -3.0895686678 1.7125362286 0.4414414214
| 13> C -1.608317801 0.1803091508 0.392637825
| 14> C -1.2819532 -1.1909623896 0.4333396936
| 15> C 0.0133988412 -1.6068118521 0.3269285314
| 16> C 1.0638731192 -0.6757490522 0.1717556426
| 17> C 2.4061650866 -1.0707298853 0.0600377337
| 18> C 3.4106470035 -0.140011191 -0.0941095722
| 19> C 3.0889730017 1.2311782591 -0.1408502553
| 20> C 1.786859257 1.6349401212 -0.0334489537
| 21> C 0.7406341291 0.7058676527 0.1244542958
| 22> C -0.6078389096 1.1022236475 0.2342178218
| 23> O 4.6802190644 -0.6328873806 -0.1929997483
| 24> C 5.75755287 0.2712477042 -0.3491943385
| 25> C -3.7835830229 0.071680156 -0.6840229552
| 26> O -3.9245085915 0.6894525408 -1.7202139198
| 27> O -4.2269124922 -1.1614518595 -0.5282542218
| 28> H -3.6846980644 -0.9114980603 1.9170714005
| 29> H -3.0922124657 0.573653257 2.6687764796
| 30> H -4.6945855787 0.5361140394 1.9209372711
| 31> H -2.0734857572 -1.9163203887 0.5427162387
| 32> H 0.2547626101 -2.658782385 0.3577111415
| 33> H 2.6666768042 -2.1173259819 0.0938786108
| 34> H 3.8653592344 1.9691314394 -0.2618255866
| 35> H 1.5463262383 2.6871156636 -0.0705922055
| 36> H -0.8391978349 2.1569928471 0.1922691528
| 37> H 5.6610306595 0.8475991967 -1.2729812706
| 38> H 6.6466265718 -0.3532257874 -0.400979769
| 39> H 5.8347164171 0.9476080387 0.5060094127
| 40> H -4.669027714 -1.5060126257 -1.3283137965
| 41> *
| 42>
| 43>                          ****END OF INPUT****

CARTESIAN COORDINATES (ANGSTROEM)
---------------------------------
  C     -3.673533    0.171272    1.843830
  C     -3.052599    0.622214    0.521350
  H     -3.089569    1.712536    0.441441
  C     -1.608318    0.180309    0.392638
  C     -1.281953   -1.190962    0.433340
  C      0.013399   -1.606812    0.326929
  C      1.063873   -0.675749    0.171756
  C      2.406165   -1.070730    0.060038
  C      3.410647   -0.140011   -0.094110
  C      3.088973    1.231178   -0.140850
  C      1.786859    1.634940   -0.033449
  C      0.740634    0.705868    0.124454
  C     -0.607839    1.102224    0.234218
  O      4.680219   -0.632887   -0.193000
  C      5.757553    0.271248   -0.349194
  C     -3.783583    0.071680   -0.684023
  O     -3.924509    0.689453   -1.720214
  O     -4.226912   -1.161452   -0.528254
  H     -3.684698   -0.911498    1.917071
  H     -3.092212    0.573653    2.668776
  H     -4.694586    0.536114    1.920937
  H     -2.073486   -1.916320    0.542716
  H      0.254763   -2.658782    0.357711
  H      2.666677   -2.117326    0.093879
  H      3.865359    1.969131   -0.261826
  H      1.546326    2.687116   -0.070592
  H     -0.839198    2.156993    0.192269
  H      5.661031    0.847599   -1.272981
  H      6.646627   -0.353226   -0.400980
  H      5.834716    0.947608    0.506009
  H     -4.669028   -1.506013   -1.328314

 Total Charge           Charge          ....    0
 Multiplicity           Mult            ....    1
 Number of Electrons    NEL             ....  122
 Basis Dimension        Dim             ....  408

ORBITAL ENERGIES
----------------

  NO   OCC          E(Eh)            E(eV)
   0   2.0000     -19.004519      -517.1393
   1   2.0000     -18.988702      -516.7089
   2   2.0000     -18.945126      -515.5231
   3   2.0000     -10.169787      -276.7340
   4   2.0000     -10.099501      -274.8214
   5   2.0000     -10.073222      -274.1063
   6   2.0000     -10.055629      -273.6276
   7   2.0000     -10.048654      -273.4378
   8   2.0000     -10.048433      -273.4318
   9   2.0000     -10.044070      -273.3130
  10   2.0000     -10.039959      -273.2012
  11   2.0000     -10.038039      -273.1489
  12   2.0000     -10.035339      -273.0755
  13   2.0000     -10.035282      -273.0739
  14   2.0000     -10.034666      -273.0571
  15   2.0000     -10.030877      -272.9540
  16   2.0000     -10.020902      -272.6826
  17   2.0000      -1.082590       -29.4588
  18   2.0000      -1.035067       -28.1656
  19   2.0000      -0.987929       -26.8829
  20   2.0000      -0.851328       -23.1658
  21   2.0000      -0.808566       -22.0022
  22   2.0000      -0.765564       -20.8321
  23   2.0000      -0.746410       -20.3108
  24   2.0000      -0.707638       -19.2558
  25   2.0000      -0.701560       -19.0904
  26   2.0000      -0.655376       -17.8337
  27   2.0000      -0.635180       -17.2841
  28   2.0000      -0.601668       -16.3722
  29   2.0000      -0.591028       -16.0827
  30   2.0000      -0.570386       -15.5210
  31   2.0000      -0.553796       -15.0696
  32   2.0000      -0.501233       -13.6392
  33   2.0000      -0.485570       -13.2130
  34   2.0000      -0.482651       -13.1336
  35   2.0000      -0.460635       -12.5345
  36   2.0000      -0.447893       -12.1878
  37   2.0000      -0.438323       -11.9274
  38   2.0000      -0.437163       -11.8958
  39   2.0000      -0.433120       -11.7858
  40   2.0000      -0.413598       -11.2546
  41   2.0000      -0.412334       -11.2202
  42   2.0000      -0.391271       -10.6470
  43   2.0000      -0.384555       -10.4643
  44   2.0000      -0.378779       -10.3071
  45   2.0000      -0.376359       -10.2412
  46   2.0000      -0.371436       -10.1073
  47   2.0000      -0.357289        -9.7223
  48   2.0000      -0.355235        -9.6664
  49   2.0000      -0.347735        -9.4623
  50   2.0000      -0.326517        -8.8850
  51   2.0000      -0.325701        -8.8628
  52   2.0000      -0.313007        -8.5173
  53   2.0000      -0.307765        -8.3747
  54   2.0000      -0.297485        -8.0950
  55   2.0000      -0.292177        -7.9506
  56   2.0000      -0.285812        -7.7774
  57   2.0000      -0.266049        -7.2396
  58   2.0000      -0.248816        -6.7706
  59   2.0000      -0.224381        -6.1057
  60   2.0000      -0.192707        -5.2438
  61   0.0000      -0.070258        -1.9118
  62   0.0000      -0.040500        -1.1021
  63   0.0000      -0.018538        -0.5044
  64   0.0000      -0.003824        -0.1040
  65   0.0000       0.063211         1.7201

MULLIKEN ATOMIC CHARGES
-----------------------
   0 C :   -0.541398
   1 C :   -0.028309
   2 H :    0.184581
   3 C :    0.120280
   4 C :   -0.221894
   5 C :   -0.328846
   6 C :    0.212088
   7 C :   -0.430411
   8 C :    0.336790
   9 C :   -0.277130
  10 C :   -0.303396
  11 C :    0.129395
  12 C :   -0.299276
  13 O :   -0.222909
  14 C :   -0.341414
  15 C :    0.308263
  16 O :   -0.468208
  17 O :   -0.348456
  18 H :    0.180928
  19 H :    0.172551
  20 H :    0.172434
  21 H :    0.191273
  22 H :    0.174607
  23 H :    0.183884
  24 H :    0.185765
  25 H :    0.178535
  26 H :    0.179470
  27 H :    0.172506
  28 H :    0.173793
  29 H :    0.172464
  30 H :    0.382039
Sum of atomic charges:   -0.0000000

LOEWDIN ATOMIC CHARGES
----------------------
   0 C :   -0.377201
   1 C :   -0.141475
   2 H :    0.196387
   3 C :   -0.083616
   4 C :   -0.150221
   5 C :   -0.149215
   6 C :   -0.063094
   7 C :   -0.134066
   8 C :    0.181353
   9 C :   -0.155960
  10 C :   -0.135331
  11 C :   -0.079732
  12 C :   -0.132198
  13 O :   -0.707718
  14 C :   -0.051327
  15 C :    0.360991
  16 O :   -0.480314
  17 O :   -0.390135
  18 H :    0.170698
  19 H :    0.165515
  20 H :    0.166155
  21 H :    0.190231
  22 H :    0.183322
  23 H :    0.193290
  24 H :    0.191578
  25 H :    0.185381
  26 H :    0.187400
  27 H :    0.174361
  28 H :    0.187704
  29 H :    0.174359
  30 H :    0.322880

  Mayer bond orders larger than 0.100000
B(  0-C ,  1-C ) :   0.9008 B(  0-C , 18-H ) :   0.9629 B(  0-C , 19-H ) :   0.9695
B(  0-C , 20-H ) :   0.9685 B(  1-C ,  2-H ) :   0.9662 B(  1-C ,  3-C ) :   0.7985
B(  1-C , 15-C ) :   0.9797 B(  3-C ,  4-C ) :   1.2008 B(  3-C , 12-C ) :   1.5011
B(  4-C ,  5-C ) :   1.4886 B(  4-C , 21-H ) :   0.9375 B(  5-C ,  6-C ) :   1.1654
B(  5-C , 22-H ) :   0.9764 B(  6-C ,  7-C ) :   1.1815 B(  6-C , 11-C ) :   1.3787
B(  7-C ,  8-C ) :   1.4406 B(  7-C , 23-H ) :   0.9502 B(  8-C ,  9-C ) :   1.2267
B(  8-C , 13-O ) :   1.0368 B(  9-C , 10-C ) :   1.4451 B(  9-C , 24-H ) :   0.9294
B( 10-C , 11-C ) :   1.2276 B( 10-C , 25-H ) :   0.9688 B( 11-C , 12-C ) :   1.2241
B( 12-C , 26-H ) :   0.9477 B( 13-O , 14-C ) :   0.8439 B( 14-C , 27-H ) :   0.9560
B( 14-C , 28-H ) :   0.9602 B( 14-C , 29-H ) :   0.9563 B( 15-C , 16-O ) :   1.8769
B( 15-C , 17-O ) :   1.0779 B( 17-O , 30-H ) :   0.8333

Dispersion correction           -0.013047328
FINAL SINGLE POINT ENERGY      -767.460231068010

DIPOLE MOMENT
-------------

Method             : SCF
Type of density    : Electron Density
Multiplicity       :   1
Irrep              :   0
Energy             :  -767.4608876215296505 Eh
Relativity type    :
Basis              : AO
                                X                 Y                 Z
Electronic contribution:     -3.387284472      -1.850900358      -4.194007438
Nuclear contribution   :      4.013417117       1.829565241       4.941881381
                        -----------------------------------------
Total Dipole Moment    :      0.626132646      -0.021335116       0.747873943
                        -----------------------------------------
Magnitude (a.u.)       :      0.975608893
Magnitude (Debye)      :      2.479800733

Rotational constants in cm-1:             0.048296             0.006713             0.006473
Rotational constants in MHz :          1447.873222           201.251966           194.050924

                             ****ORCA TERMINATED NORMALLY****
TOTAL RUN TIME: 0 days 0 hours 1 minutes 46 seconds 753 msec
