                         Program Version 6.0.0  -   RELEASE  -
|  1> ! pbe def2-sv(p) def2/J RI DEFGRID1 loosescf d4 GCP(DFT/SV(P)) printgap
|  2> %output
|  3>     printlevel normal
|  4> end
|  5> * xyz 0 1
|  6> C -1.7759185348 -1.2069944982 -0.5657167594
|  7> C -2.3607318639 -0.0621396956 0.2523254221
|  8> C -1.3334086856 0.6306057942 1.1473498326
|  9> C -0.2610550771 1.3937499283 0.3624379739
| 10> C 0.7787660989 0.5141380055 -0.2792223066
| 11> O 1.1968492347 0.6557146703 -1.4120137305
| 12> O 1.2399872277 -0.4166784528 0.547736647
| 13> C 2.2519269828 -1.2939535081 0.0525794538
| 14> H -1.2954353431 -1.9339729778 0.0856485902
| 15> H -2.5603949953 -1.7109365916 -1.1252571988
| 16> H -1.0398721717 -0.8406655076 -1.2789061741
| 17> H -2.8051730478 0.6727081443 -0.422253813
| 18> H -3.1576135004 -0.4550359185 0.8868549931
| 19> H -0.8490116501 -0.1051149853 1.7901406078
| 20> H -1.8566197707 1.3460084487 1.7833520028
| 21> H 0.279634459 2.0499049811 1.0484238433
| 22> H -0.7102442027 2.0079001525 -0.4188298419
| 23> H 2.5250214247 -1.9290979975 0.8893639561
| 24> H 3.1083384001 -0.7173876588 -0.2995896044
| 25> H 1.8595709047 -1.8856870482 -0.7758318891
| 26> *
| 27>
| 28>                          ****END OF INPUT****

CARTESIAN COORDINATES (ANGSTROEM)
---------------------------------
  C     -1.775919   -1.206994   -0.565717
  C     -2.360732   -0.062140    0.252325
  C     -1.333409    0.630606    1.147350
  C     -0.261055    1.393750    0.362438
  C      0.778766    0.514138   -0.279222
  O      1.196849    0.655715   -1.412014
  O      1.239987   -0.416678    0.547737
  C      2.251927   -1.293954    0.052579
  H     -1.295435   -1.933973    0.085649
  H     -2.560395   -1.710937   -1.125257
  H     -1.039872   -0.840666   -1.278906
  H     -2.805173    0.672708   -0.422254
  H     -3.157614   -0.455036    0.886855
  H     -0.849012   -0.105115    1.790141
  H     -1.856620    1.346008    1.783352
  H      0.279634    2.049905    1.048424
  H     -0.710244    2.007900   -0.418830
  H      2.525021   -1.929098    0.889364
  H      3.108338   -0.717388   -0.299590
  H      1.859571   -1.885687   -0.775832

 Total Charge           Charge          ....    0
 Multiplicity           Mult            ....    1
 Number of Electrons    NEL             ....   64
 Basis Dimension        Dim             ....  136

ORBITAL ENERGIES
----------------

  NO   OCC          E(Eh)            E(eV)
   0   2.0000     -18.800911      -511.5988
   1   2.0000     -18.729718      -509.6615
   2   2.0000     -10.005067      -272.2517
   3   2.0000      -9.942727      -270.5554
   4   2.0000      -9.897901      -269.3356
   5   2.0000      -9.889881      -269.1173
   6   2.0000      -9.885860      -269.0079
   7   2.0000      -9.873816      -268.6802
   8   2.0000      -1.006672       -27.3929
   9   2.0000      -0.906583       -24.6694
  10   2.0000      -0.733438       -19.9579
  11   2.0000      -0.682310       -18.5666
  12   2.0000      -0.644517       -17.5382
  13   2.0000      -0.587346       -15.9825
  14   2.0000      -0.517572       -14.0839
  15   2.0000      -0.507426       -13.8078
  16   2.0000      -0.451583       -12.2882
  17   2.0000      -0.443986       -12.0815
  18   2.0000      -0.412772       -11.2321
  19   2.0000      -0.408587       -11.1182
  20   2.0000      -0.390764       -10.6332
  21   2.0000      -0.374921       -10.2021
  22   2.0000      -0.360722        -9.8157
  23   2.0000      -0.355653        -9.6778
  24   2.0000      -0.336642        -9.1605
  25   2.0000      -0.324842        -8.8394
  26   2.0000      -0.307310        -8.3623
  27   2.0000      -0.295439        -8.0393
  28   2.0000      -0.286611        -7.7991
  29   2.0000      -0.281097        -7.6491
  30   2.0000      -0.257786        -7.0147
  31   2.0000      -0.213111        -5.7990
  32   0.0000      -0.019668        -0.5352
  33   0.0000       0.035084         0.9547
  34   0.0000       0.052146         1.4190
  35   0.0000       0.074182         2.0186
  36   0.0000       0.077195         2.1006

MULLIKEN ATOMIC CHARGES
-----------------------
   0 C :   -0.299457
   1 C :   -0.177231
   2 C :   -0.179541
   3 C :   -0.119018
   4 C :    0.073006
   5 O :   -0.209343
   6 O :   -0.242441
   7 C :   -0.107853
   8 H :    0.094664
   9 H :    0.103600
  10 H :    0.132504
  11 H :    0.084536
  12 H :    0.087521
  13 H :    0.100698
  14 H :    0.085581
  15 H :    0.114405
  16 H :    0.098469
  17 H :    0.119921
  18 H :    0.120183
  19 H :    0.119796
Sum of atomic charges:   -0.0000000

LOEWDIN ATOMIC CHARGES
----------------------
   0 C :   -0.350233
   1 C :   -0.232128
   2 C :   -0.227483
   3 C :   -0.241289
   4 C :    0.029160
   5 O :   -0.172044
   6 O :   -0.072288
   7 C :   -0.202872
   8 H :    0.116773
   9 H :    0.120561
  10 H :    0.123341
  11 H :    0.115265
  12 H :    0.116627
  13 H :    0.120135
  14 H :    0.118668
  15 H :    0.144560
  16 H :    0.133917
  17 H :    0.119802
  18 H :    0.119991
  19 H :    0.119538

  Mayer bond orders larger than 0.100000
B(  0-C ,  1-C ) :   1.1773 B(  0-C ,  8-H ) :   0.9508 B(  0-C ,  9-H ) :   0.9472
B(  0-C , 10-H ) :   0.9276 B(  1-C ,  2-C ) :   1.1233 B(  1-C , 11-H ) :   0.9234
B(  1-C , 12-H ) :   0.9246 B(  2-C ,  3-C ) :   1.1061 B(  2-C , 13-H ) :   0.9167
B(  2-C , 14-H ) :   0.9181 B(  3-C ,  4-C ) :   1.0543 B(  3-C , 15-H ) :   0.8869
B(  3-C , 16-H ) :   0.9081 B(  4-C ,  5-O ) :   2.0429 B(  4-C ,  6-O ) :   1.1908
B(  6-O ,  7-C ) :   0.9415 B(  7-C , 17-H ) :   0.9585 B(  7-C , 18-H ) :   0.9503
B(  7-C , 19-H ) :   0.9522

Dispersion correction           -0.016398159
FINAL SINGLE POINT ENERGY      -385.451169797542

DIPOLE MOMENT
-------------

Method             : SCF
Type of density    : Electron Density
Multiplicity       :   1
Irrep              :   0
Energy             :  -385.5265021570868385 Eh
Relativity type    :
Basis              : AO
                                X                 Y                 Z
Electronic contribution:      6.016121795       2.936943177      -1.333561113
Nuclear contribution   :     -6.063637949      -3.281330794       2.016547257
                        -----------------------------------------
Total Dipole Moment    :     -0.047516154      -0.344387617       0.682986143
                        -----------------------------------------
Magnitude (a.u.)       :      0.766375031
Magnitude (Debye)      :      1.947970520

Rotational constants in cm-1:             0.098982             0.045704             0.041643
Rotational constants in MHz :          2967.416267          1370.165034          1248.411446

                             ****ORCA TERMINATED NORMALLY****
TOTAL RUN TIME: 0 days 0 hours 0 minutes 11 seconds 24 msec
