                         Program Version 6.0.0  -   RELEASE  -
|  1> ! r2scan-3c def2/J RI DEFGRID2 scfconv6 printgap
|  2> %output
|  3>     printlevel normal
|  4> end
|  5> * xyz 0 1
|  6> C -1.7955835299 -1.1920223873 -0.582791786
|  7> C -2.3666325263 -0.0617603884 0.264518968
|  8> C -1.3250741766 0.6148033554 1.155403042
|  9> C -0.2604049452 1.3849124759 0.3666433657
| 10> C 0.7802187956 0.5130215106 -0.2856779629
| 11> O 1.1774026531 0.6565118305 -1.42598866
| 12> O 1.2533387278 -0.4099900394 0.5415388733
| 13> C 2.2735615957 -1.2929720404 0.0712491046
| 14> H -2.588661859 -1.6837829514 -1.1408462292
| 15> H -1.0678391528 -0.8144601589 -1.2982833558
| 16> H -1.3081958992 -1.9322233068 0.0480134749
| 17> H -2.8211678439 0.685163889 -0.3896911055
| 18> H -3.153786239 -0.4653820336 0.9044622089
| 19> H -0.8349555535 -0.1308914561 1.7821408124
| 20> H -1.8375832322 1.3231291648 1.8077480672
| 21> H 0.2820981409 2.0405509531 1.051547737
| 22> H -0.7173318834 1.9999716935 -0.4093880613
| 23> H 2.2284094466 -1.3704449887 -1.0157127939
| 24> H 2.0899793883 -2.2562875817 0.5395576686
| 25> H 3.2464539273 -0.9032476403 0.370323933
| 26> *
| 27>
| 28>                          ****END OF INPUT****

CARTESIAN COORDINATES (ANGSTROEM)
---------------------------------
  C     -1.795584   -1.192022   -0.582792
  C     -2.366633   -0.061760    0.264519
  C     -1.325074    0.614803    1.155403
  C     -0.260405    1.384912    0.366643
  C      0.780219    0.513022   -0.285678
  O      1.177403    0.656512   -1.425989
  O      1.253339   -0.409990    0.541539
  C      2.273562   -1.292972    0.071249
  H     -2.588662   -1.683783   -1.140846
  H     -1.067839   -0.814460   -1.298283
  H     -1.308196   -1.932223    0.048013
  H     -2.821168    0.685164   -0.389691
  H     -3.153786   -0.465382    0.904462
  H     -0.834956   -0.130891    1.782141
  H     -1.837583    1.323129    1.807748
  H      0.282098    2.040551    1.051548
  H     -0.717332    1.999972   -0.409388
  H      2.228409   -1.370445   -1.015713
  H      2.089979   -2.256288    0.539558
  H      3.246454   -0.903248    0.370324

 Total Charge           Charge          ....    0
 Multiplicity           Mult            ....    1
 Number of Electrons    NEL             ....   64
 Basis Dimension        Dim             ....  222

ORBITAL ENERGIES
----------------

  NO   OCC          E(Eh)            E(eV)
   0   2.0000     -18.999707      -517.0083
   1   2.0000     -18.926846      -515.0257
   2   2.0000     -10.153360      -276.2870
   3   2.0000     -10.086395      -274.4648
   4   2.0000     -10.042924      -273.2819
   5   2.0000     -10.033097      -273.0144
   6   2.0000     -10.028010      -272.8760
   7   2.0000     -10.015341      -272.5313
   8   2.0000      -1.073566       -29.2132
   9   2.0000      -0.974655       -26.5217
  10   2.0000      -0.779954       -21.2236
  11   2.0000      -0.724535       -19.7156
  12   2.0000      -0.684675       -18.6309
  13   2.0000      -0.625547       -17.0220
  14   2.0000      -0.550090       -14.9687
  15   2.0000      -0.533784       -14.5250
  16   2.0000      -0.471734       -12.8365
  17   2.0000      -0.462606       -12.5881
  18   2.0000      -0.437019       -11.8919
  19   2.0000      -0.429913       -11.6985
  20   2.0000      -0.411199       -11.1893
  21   2.0000      -0.390630       -10.6296
  22   2.0000      -0.377365       -10.2686
  23   2.0000      -0.369296       -10.0491
  24   2.0000      -0.352928        -9.6037
  25   2.0000      -0.338129        -9.2010
  26   2.0000      -0.321764        -8.7556
  27   2.0000      -0.307784        -8.3752
  28   2.0000      -0.299300        -8.1444
  29   2.0000      -0.292950        -7.9716
  30   2.0000      -0.272193        -7.4067
  31   2.0000      -0.232954        -6.3390
  32   0.0000      -0.014545        -0.3958
  33   0.0000       0.064519         1.7557
  34   0.0000       0.089582         2.4377
  35   0.0000       0.101178         2.7532
  36   0.0000       0.121551         3.3076

MULLIKEN ATOMIC CHARGES
-----------------------
   0 C :   -0.487679
   1 C :   -0.260485
   2 C :   -0.235996
   3 C :   -0.351020
   4 C :    0.353589
   5 O :   -0.427953
   6 O :   -0.178299
   7 C :   -0.293273
   8 H :    0.147987
   9 H :    0.168629
  10 H :    0.149660
  11 H :    0.139734
  12 H :    0.144102
  13 H :    0.160290
  14 H :    0.145224
  15 H :    0.166525
  16 H :    0.176516
  17 H :    0.182834
  18 H :    0.148664
  19 H :    0.150952
Sum of atomic charges:    0.0000000

LOEWDIN ATOMIC CHARGES
----------------------
   0 C :   -0.418001
   1 C :   -0.309385
   2 C :   -0.290355
   3 C :   -0.226688
   4 C :    0.343308
   5 O :   -0.443312
   6 O :   -0.611926
   7 C :   -0.045869
   8 H :    0.150822
   9 H :    0.165487
  10 H :    0.151947
  11 H :    0.152784
  12 H :    0.152879
  13 H :    0.170552
  14 H :    0.156224
  15 H :    0.183751
  16 H :    0.180008
  17 H :    0.190246
  18 H :    0.174475
  19 H :    0.173053

  Mayer bond orders larger than 0.100000
B(  0-C ,  1-C ) :   0.8894 B(  0-C ,  8-H ) :   0.9647 B(  0-C ,  9-H ) :   0.9624
B(  0-C , 10-H ) :   0.9811 B(  1-C ,  2-C ) :   0.9265 B(  1-C , 11-H ) :   0.9905
B(  1-C , 12-H ) :   0.9594 B(  2-C ,  3-C ) :   0.8535 B(  2-C , 13-H ) :   0.9763
B(  2-C , 14-H ) :   0.9624 B(  3-C ,  4-C ) :   0.9771 B(  3-C , 15-H ) :   0.9271
B(  3-C , 16-H ) :   1.0081 B(  4-C ,  5-O ) :   1.8492 B(  4-C ,  6-O ) :   1.0346
B(  6-O ,  7-C ) :   0.8428 B(  7-C , 17-H ) :   0.9669 B(  7-C , 18-H ) :   0.9692
B(  7-C , 19-H ) :   0.9607

Dispersion correction           -0.005565287
FINAL SINGLE POINT ENERGY      -386.228324446708

DIPOLE MOMENT
-------------

Method             : SCF
Type of density    : Electron Density
Multiplicity       :   1
Irrep              :   0
Energy             :  -386.2349740047566229 Eh
Relativity type    :
Basis              : AO
                                X                 Y                 Z
Electronic contribution:      5.923738326       2.939863319      -1.319007454
Nuclear contribution   :     -6.045697952      -3.287343641       2.097640552
                        -----------------------------------------
Total Dipole Moment    :     -0.121959626      -0.347480322       0.778633098
                        -----------------------------------------
Magnitude (a.u.)       :      0.861328175
Magnitude (Debye)      :      2.189322233

Rotational constants in cm-1:             0.098812             0.045233             0.041559
Rotational constants in MHz :          2962.313996          1356.063721          1245.914183

                             ****ORCA TERMINATED NORMALLY****
TOTAL RUN TIME: 0 days 0 hours 0 minutes 26 seconds 263 msec
