                         Program Version 6.0.0  -   RELEASE  -
|  1> ! r2scan-3c def2/J RI DEFGRID2 scfconv6 printgap
|  2> %output
|  3>     printlevel normal
|  4> end
|  5> %cpcm
|  6>     smd true
|  7>     smdsolvent "water"
|  8> end
|  9> * xyz 0 1
| 10> C -1.7955835299 -1.1920223873 -0.582791786
| 11> C -2.3666325263 -0.0617603884 0.264518968
| 12> C -1.3250741766 0.6148033554 1.155403042
| 13> C -0.2604049452 1.3849124759 0.3666433657
| 14> C 0.7802187956 0.5130215106 -0.2856779629
| 15> O 1.1774026531 0.6565118305 -1.42598866
| 16> O 1.2533387278 -0.4099900394 0.5415388733
| 17> C 2.2735615957 -1.2929720404 0.0712491046
| 18> H -2.588661859 -1.6837829514 -1.1408462292
| 19> H -1.0678391528 -0.8144601589 -1.2982833558
| 20> H -1.3081958992 -1.9322233068 0.0480134749
| 21> H -2.8211678439 0.685163889 -0.3896911055
| 22> H -3.153786239 -0.4653820336 0.9044622089
| 23> H -0.8349555535 -0.1308914561 1.7821408124
| 24> H -1.8375832322 1.3231291648 1.8077480672
| 25> H 0.2820981409 2.0405509531 1.051547737
| 26> H -0.7173318834 1.9999716935 -0.4093880613
| 27> H 2.2284094466 -1.3704449887 -1.0157127939
| 28> H 2.0899793883 -2.2562875817 0.5395576686
| 29> H 3.2464539273 -0.9032476403 0.370323933
| 30> *
| 31>
| 32>                          ****END OF INPUT****

CARTESIAN COORDINATES (ANGSTROEM)
---------------------------------
  C     -1.795584   -1.192022   -0.582792
  C     -2.366633   -0.061760    0.264519
  C     -1.325074    0.614803    1.155403
  C     -0.260405    1.384912    0.366643
  C      0.780219    0.513022   -0.285678
  O      1.177403    0.656512   -1.425989
  O      1.253339   -0.409990    0.541539
  C      2.273562   -1.292972    0.071249
  H     -2.588662   -1.683783   -1.140846
  H     -1.067839   -0.814460   -1.298283
  H     -1.308196   -1.932223    0.048013
  H     -2.821168    0.685164   -0.389691
  H     -3.153786   -0.465382    0.904462
  H     -0.834956   -0.130891    1.782141
  H     -1.837583    1.323129    1.807748
  H      0.282098    2.040551    1.051548
  H     -0.717332    1.999972   -0.409388
  H      2.228409   -1.370445   -1.015713
  H      2.089979   -2.256288    0.539558
  H      3.246454   -0.903248    0.370324

 Total Charge           Charge          ....    0
 Multiplicity           Mult            ....    1
 Number of Electrons    NEL             ....   64
 Basis Dimension        Dim             ....  222

ORBITAL ENERGIES
----------------

  NO   OCC          E(Eh)            E(eV)
   0   2.0000     -19.003892      -517.1222
   1   2.0000     -18.941618      -515.4276
   2   2.0000     -10.162787      -276.5435
   3   2.0000     -10.075757      -274.1753
   4   2.0000     -10.036327      -273.1023
   5   2.0000     -10.024375      -272.7771
   6   2.0000     -10.018628      -272.6207
   7   2.0000     -10.009101      -272.3615
   8   2.0000      -1.079265       -29.3683
   9   2.0000      -0.987452       -26.8699
  10   2.0000      -0.773334       -21.0435
  11   2.0000      -0.719274       -19.5724
  12   2.0000      -0.677847       -18.4451
  13   2.0000      -0.619166       -16.8484
  14   2.0000      -0.543953       -14.8017
  15   2.0000      -0.529984       -14.4216
  16   2.0000      -0.469556       -12.7773
  17   2.0000      -0.461360       -12.5542
  18   2.0000      -0.450095       -12.2477
  19   2.0000      -0.422279       -11.4908
  20   2.0000      -0.405159       -11.0249
  21   2.0000      -0.383726       -10.4417
  22   2.0000      -0.373493       -10.1633
  23   2.0000      -0.367165        -9.9911
  24   2.0000      -0.350345        -9.5334
  25   2.0000      -0.331087        -9.0093
  26   2.0000      -0.322019        -8.7626
  27   2.0000      -0.301623        -8.2076
  28   2.0000      -0.292749        -7.9661
  29   2.0000      -0.285852        -7.7784
  30   2.0000      -0.277918        -7.5625
  31   2.0000      -0.247412        -6.7324
  32   0.0000      -0.021642        -0.5889
  33   0.0000       0.070537         1.9194
  34   0.0000       0.096948         2.6381
  35   0.0000       0.110963         3.0195
  36   0.0000       0.129306         3.5186

MULLIKEN ATOMIC CHARGES
-----------------------
   0 C :   -0.520570
   1 C :   -0.270399
   2 C :   -0.243894
   3 C :   -0.369037
   4 C :    0.390917
   5 O :   -0.514224
   6 O :   -0.193367
   7 C :   -0.315799
   8 H :    0.160169
   9 H :    0.161654
  10 H :    0.163536
  11 H :    0.151452
  12 H :    0.155290
  13 H :    0.161944
  14 H :    0.162027
  15 H :    0.199043
  16 H :    0.185454
  17 H :    0.180755
  18 H :    0.176444
  19 H :    0.178604
Sum of atomic charges:    0.0000000

LOEWDIN ATOMIC CHARGES
----------------------
   0 C :   -0.424465
   1 C :   -0.310667
   2 C :   -0.287867
   3 C :   -0.225065
   4 C :    0.351724
   5 O :   -0.505834
   6 O :   -0.612638
   7 C :   -0.041911
   8 H :    0.153938
   9 H :    0.161791
  10 H :    0.155503
  11 H :    0.156182
  12 H :    0.156410
  13 H :    0.170507
  14 H :    0.162728
  15 H :    0.196264
  16 H :    0.183903
  17 H :    0.189730
  18 H :    0.186589
  19 H :    0.183179

  Mayer bond orders larger than 0.100000
B(  0-C ,  1-C ) :   0.8774 B(  0-C ,  8-H ) :   0.9626 B(  0-C ,  9-H ) :   0.9640
B(  0-C , 10-H ) :   0.9777 B(  1-C ,  2-C ) :   0.9215 B(  1-C , 11-H ) :   0.9905
B(  1-C , 12-H ) :   0.9587 B(  2-C ,  3-C ) :   0.8401 B(  2-C , 13-H ) :   0.9766
B(  2-C , 14-H ) :   0.9596 B(  3-C ,  4-C ) :   0.9795 B(  3-C , 15-H ) :   0.9174
B(  3-C , 16-H ) :   1.0031 B(  4-C ,  5-O ) :   1.7767 B(  4-C ,  6-O ) :   1.0622
B(  6-O ,  7-C ) :   0.8274 B(  7-C , 17-H ) :   0.9634 B(  7-C , 18-H ) :   0.9593
B(  7-C , 19-H ) :   0.9529

Dispersion correction           -0.005565287
FINAL SINGLE POINT ENERGY      -386.233143938283

DIPOLE MOMENT
-------------

Method             : SCF
Type of density    : Electron Density
Multiplicity       :   1
Irrep              :   0
Energy             :  -386.2397934963310604 Eh
Relativity type    :
Basis              : AO
                                X                 Y                 Z
Electronic contribution:      5.844219452       2.852593690      -0.959116294
Nuclear contribution   :     -6.045697952      -3.287343641       2.097640552
                        -----------------------------------------
Total Dipole Moment    :     -0.201478500      -0.434749951       1.138524258
                        -----------------------------------------
Magnitude (a.u.)       :      1.235248393
Magnitude (Debye)      :      3.139751895

Rotational constants in cm-1:             0.098812             0.045233             0.041559
Rotational constants in MHz :          2962.313996          1356.063721          1245.914183

                             ****ORCA TERMINATED NORMALLY****
TOTAL RUN TIME: 0 days 0 hours 0 minutes 34 seconds 356 msec
