                         Program Version 6.0.0  -   RELEASE  -
|  1> ! pbe def2-sv(p) def2/J RI DEFGRID1 loosescf d4 GCP(DFT/SV(P)) printgap
|  2> %output
|  3>     printlevel normal
|  4> end
|  5> * xyz 0 1
|  6> C -3.3807670727 0.392651331 0.7739398277
|  7> C -2.7873801142 -0.5612400824 -0.2568497579
|  8> C -1.3928146996 -0.1489506013 -0.7266611071
|  9> C -0.3384521164 -0.2694753028 0.3727973739
| 10> C 1.0235512717 0.1540494985 -0.1080342855
| 11> O 1.2364683012 0.9357428755 -1.0107386519
| 12> O 1.9833416278 -0.4352949735 0.5991807484
| 13> C 3.351626227 -0.128764971 0.310486318
| 14> H -2.8172344384 0.369955957 1.7027491701
| 15> H -3.3786677895 1.4110710993 0.3923217489
| 16> H -4.4072464955 0.1120764256 0.9962195342
| 17> H -2.743593943 -1.5686711542 0.1612015102
| 18> H -3.4444784049 -0.5921919065 -1.1278857724
| 19> H -1.4107737788 0.8816103714 -1.0862395072
| 20> H -1.0957696975 -0.7803615641 -1.5667471406
| 21> H -0.2712079315 -1.2885730663 0.7539568391
| 22> H -0.5924994288 0.3865943861 1.2082940599
| 23> H 3.8603954169 -1.0680937305 0.1044647856
| 24> H 3.7805161595 0.3501646101 1.1888893019
| 25> H 3.407134074 0.5363683729 -0.5518930176
| 26> *
| 27>
| 28>                          ****END OF INPUT****

CARTESIAN COORDINATES (ANGSTROEM)
---------------------------------
  C     -3.380767    0.392651    0.773940
  C     -2.787380   -0.561240   -0.256850
  C     -1.392815   -0.148951   -0.726661
  C     -0.338452   -0.269475    0.372797
  C      1.023551    0.154049   -0.108034
  O      1.236468    0.935743   -1.010739
  O      1.983342   -0.435295    0.599181
  C      3.351626   -0.128765    0.310486
  H     -2.817234    0.369956    1.702749
  H     -3.378668    1.411071    0.392322
  H     -4.407246    0.112076    0.996220
  H     -2.743594   -1.568671    0.161202
  H     -3.444478   -0.592192   -1.127886
  H     -1.410774    0.881610   -1.086240
  H     -1.095770   -0.780362   -1.566747
  H     -0.271208   -1.288573    0.753957
  H     -0.592499    0.386594    1.208294
  H      3.860395   -1.068094    0.104465
  H      3.780516    0.350165    1.188889
  H      3.407134    0.536368   -0.551893

 Total Charge           Charge          ....    0
 Multiplicity           Mult            ....    1
 Number of Electrons    NEL             ....   64
 Basis Dimension        Dim             ....  136

ORBITAL ENERGIES
----------------

  NO   OCC          E(Eh)            E(eV)
   0   2.0000     -18.797014      -511.4928
   1   2.0000     -18.733214      -509.7567
   2   2.0000     -10.003838      -272.2183
   3   2.0000      -9.937575      -270.4152
   4   2.0000      -9.895938      -269.2822
   5   2.0000      -9.885279      -268.9921
   6   2.0000      -9.885008      -268.9848
   7   2.0000      -9.875538      -268.7271
   8   2.0000      -1.002303       -27.2741
   9   2.0000      -0.908776       -24.7290
  10   2.0000      -0.729277       -19.8446
  11   2.0000      -0.685160       -18.6442
  12   2.0000      -0.643954       -17.5229
  13   2.0000      -0.583734       -15.8842
  14   2.0000      -0.517798       -14.0900
  15   2.0000      -0.495532       -13.4841
  16   2.0000      -0.451036       -12.2733
  17   2.0000      -0.441701       -12.0193
  18   2.0000      -0.414602       -11.2819
  19   2.0000      -0.410986       -11.1835
  20   2.0000      -0.395884       -10.7726
  21   2.0000      -0.375904       -10.2289
  22   2.0000      -0.364333        -9.9140
  23   2.0000      -0.350724        -9.5437
  24   2.0000      -0.333149        -9.0654
  25   2.0000      -0.320662        -8.7256
  26   2.0000      -0.300982        -8.1901
  27   2.0000      -0.288505        -7.8506
  28   2.0000      -0.286318        -7.7911
  29   2.0000      -0.284059        -7.7296
  30   2.0000      -0.254281        -6.9193
  31   2.0000      -0.220384        -5.9970
  32   0.0000      -0.016219        -0.4413
  33   0.0000       0.037269         1.0141
  34   0.0000       0.057922         1.5761
  35   0.0000       0.068065         1.8522
  36   0.0000       0.072657         1.9771

MULLIKEN ATOMIC CHARGES
-----------------------
   0 C :   -0.297614
   1 C :   -0.150855
   2 C :   -0.180893
   3 C :   -0.183992
   4 C :    0.120871
   5 O :   -0.203393
   6 O :   -0.242742
   7 C :   -0.131744
   8 H :    0.106693
   9 H :    0.101648
  10 H :    0.104632
  11 H :    0.080344
  12 H :    0.087496
  13 H :    0.100416
  14 H :    0.090935
  15 H :    0.100440
  16 H :    0.120630
  17 H :    0.121727
  18 H :    0.121355
  19 H :    0.134048
Sum of atomic charges:   -0.0000000

LOEWDIN ATOMIC CHARGES
----------------------
   0 C :   -0.343711
   1 C :   -0.233547
   2 C :   -0.222685
   3 C :   -0.250580
   4 C :    0.039102
   5 O :   -0.169168
   6 O :   -0.078047
   7 C :   -0.209772
   8 H :    0.115318
   9 H :    0.118711
  10 H :    0.120814
  11 H :    0.113376
  12 H :    0.118046
  13 H :    0.122928
  14 H :    0.119873
  15 H :    0.132134
  16 H :    0.143051
  17 H :    0.120100
  18 H :    0.119786
  19 H :    0.124270

  Mayer bond orders larger than 0.100000
B(  0-C ,  1-C ) :   1.1515 B(  0-C ,  8-H ) :   0.9512 B(  0-C ,  9-H ) :   0.9549
B(  0-C , 10-H ) :   0.9515 B(  1-C ,  2-C ) :   1.1242 B(  1-C , 11-H ) :   0.9234
B(  1-C , 12-H ) :   0.9272 B(  2-C ,  3-C ) :   1.1249 B(  2-C , 13-H ) :   0.9153
B(  2-C , 14-H ) :   0.9287 B(  3-C ,  4-C ) :   1.0124 B(  3-C , 15-H ) :   0.9076
B(  3-C , 16-H ) :   0.8825 B(  4-C ,  5-O ) :   2.0649 B(  4-C ,  6-O ) :   1.2180
B(  6-O ,  7-C ) :   0.9365 B(  7-C , 17-H ) :   0.9612 B(  7-C , 18-H ) :   0.9608
B(  7-C , 19-H ) :   0.9286

Dispersion correction           -0.014740246
FINAL SINGLE POINT ENERGY      -385.451917675605

DIPOLE MOMENT
-------------

Method             : SCF
Type of density    : Electron Density
Multiplicity       :   1
Irrep              :   0
Energy             :  -385.5272099714377418 Eh
Relativity type    :
Basis              : AO
                                X                 Y                 Z
Electronic contribution:      8.655568724       0.755168966      -1.528404974
Nuclear contribution   :     -8.502169148      -1.165334744       2.034720934
                        -----------------------------------------
Total Dipole Moment    :      0.153399576      -0.410165777       0.506315960
                        -----------------------------------------
Magnitude (a.u.)       :      0.669420082
Magnitude (Debye)      :      1.701530625

Rotational constants in cm-1:             0.195584             0.027148             0.025830
Rotational constants in MHz :          5863.472658           813.890686           774.368693

                             ****ORCA TERMINATED NORMALLY****
TOTAL RUN TIME: 0 days 0 hours 0 minutes 9 seconds 509 msec
