                         Program Version 6.0.0  -   RELEASE  -
|  1> ! r2scan-3c def2/J RI DEFGRID2 scfconv6 printgap
|  2> %output
|  3>     printlevel normal
|  4> end
|  5> * xyz 0 1
|  6> C -3.3323392639 -0.6672264733 0.7692548919
|  7> C -2.8220634621 0.1543436497 -0.4095552945
|  8> C -1.4067629815 0.6894603316 -0.1967151635
|  9> C -0.3571647102 -0.4184600088 -0.116137991
| 10> C 1.0437577647 0.1297529641 -0.1951634657
| 11> O 1.3637333683 1.1598425678 -0.7497895035
| 12> O 1.9055966182 -0.6753652176 0.4180711304
| 13> C 3.2970913517 -0.3383146765 0.4145096438
| 14> H -2.752308638 -1.5775748647 0.8918208915
| 15> H -3.2703486324 -0.089934117 1.688858972
| 16> H -4.3708760338 -0.9460747892 0.6094774673
| 17> H -2.846632593 -0.4537421441 -1.3159572593
| 18> H -3.4887574263 1.0048568553 -0.5641218625
| 19> H -1.3744332948 1.2827056142 0.719326406
| 20> H -1.1399199248 1.3506472821 -1.0240639476
| 21> H -0.4770948888 -1.0978122922 -0.964399458
| 22> H -0.4436545331 -1.0026776906 0.7987460482
| 23> H 3.8166753818 -1.0328983987 -0.2440223811
| 24> H 3.6535521838 -0.4452808484 1.4362134978
| 25> H 3.4288015958 0.685073347 0.0616382115
| 26> *
| 27>
| 28>                          ****END OF INPUT****

CARTESIAN COORDINATES (ANGSTROEM)
---------------------------------
  C     -3.332339   -0.667226    0.769255
  C     -2.822063    0.154344   -0.409555
  C     -1.406763    0.689460   -0.196715
  C     -0.357165   -0.418460   -0.116138
  C      1.043758    0.129753   -0.195163
  O      1.363733    1.159843   -0.749790
  O      1.905597   -0.675365    0.418071
  C      3.297091   -0.338315    0.414510
  H     -2.752309   -1.577575    0.891821
  H     -3.270349   -0.089934    1.688859
  H     -4.370876   -0.946075    0.609477
  H     -2.846633   -0.453742   -1.315957
  H     -3.488757    1.004857   -0.564122
  H     -1.374433    1.282706    0.719326
  H     -1.139920    1.350647   -1.024064
  H     -0.477095   -1.097812   -0.964399
  H     -0.443655   -1.002678    0.798746
  H      3.816675   -1.032898   -0.244022
  H      3.653552   -0.445281    1.436213
  H      3.428802    0.685073    0.061638

 Total Charge           Charge          ....    0
 Multiplicity           Mult            ....    1
 Number of Electrons    NEL             ....   64
 Basis Dimension        Dim             ....  222

ORBITAL ENERGIES
----------------

  NO   OCC          E(Eh)            E(eV)
   0   2.0000     -18.998830      -516.9845
   1   2.0000     -18.929726      -515.1040
   2   2.0000     -10.153948      -276.3030
   3   2.0000     -10.084860      -274.4230
   4   2.0000     -10.042300      -273.2649
   5   2.0000     -10.027753      -272.8690
   6   2.0000     -10.027606      -272.8650
   7   2.0000     -10.018071      -272.6056
   8   2.0000      -1.072139       -29.1744
   9   2.0000      -0.977336       -26.5947
  10   2.0000      -0.776717       -21.1355
  11   2.0000      -0.727916       -19.8076
  12   2.0000      -0.684912       -18.6374
  13   2.0000      -0.622088       -16.9279
  14   2.0000      -0.550232       -14.9726
  15   2.0000      -0.525459       -14.2985
  16   2.0000      -0.473356       -12.8807
  17   2.0000      -0.459445       -12.5021
  18   2.0000      -0.443562       -12.0699
  19   2.0000      -0.427518       -11.6334
  20   2.0000      -0.412698       -11.2301
  21   2.0000      -0.402457       -10.9514
  22   2.0000      -0.372621       -10.1395
  23   2.0000      -0.363626        -9.8948
  24   2.0000      -0.357995        -9.7415
  25   2.0000      -0.330341        -8.9890
  26   2.0000      -0.319851        -8.7036
  27   2.0000      -0.301228        -8.1968
  28   2.0000      -0.299105        -8.1391
  29   2.0000      -0.295905        -8.0520
  30   2.0000      -0.272685        -7.4201
  31   2.0000      -0.239509        -6.5174
  32   0.0000      -0.014123        -0.3843
  33   0.0000       0.069295         1.8856
  34   0.0000       0.089037         2.4228
  35   0.0000       0.099954         2.7199
  36   0.0000       0.119080         3.2403

MULLIKEN ATOMIC CHARGES
-----------------------
   0 C :   -0.489267
   1 C :   -0.226926
   2 C :   -0.257918
   3 C :   -0.344869
   4 C :    0.398497
   5 O :   -0.439720
   6 O :   -0.195005
   7 C :   -0.306326
   8 H :    0.147865
   9 H :    0.145951
  10 H :    0.147583
  11 H :    0.134429
  12 H :    0.146187
  13 H :    0.140371
  14 H :    0.173669
  15 H :    0.171399
  16 H :    0.169565
  17 H :    0.148270
  18 H :    0.147753
  19 H :    0.188490
Sum of atomic charges:    0.0000000

LOEWDIN ATOMIC CHARGES
----------------------
   0 C :   -0.425875
   1 C :   -0.315343
   2 C :   -0.289397
   3 C :   -0.229160
   4 C :    0.363359
   5 O :   -0.444148
   6 O :   -0.603733
   7 C :   -0.046795
   8 H :    0.148376
   9 H :    0.150755
  10 H :    0.151118
  11 H :    0.151224
  12 H :    0.153842
  13 H :    0.158879
  14 H :    0.174454
  15 H :    0.183311
  16 H :    0.180277
  17 H :    0.172346
  18 H :    0.174003
  19 H :    0.192507

  Mayer bond orders larger than 0.100000
B(  0-C ,  1-C ) :   0.8827 B(  0-C ,  8-H ) :   0.9822 B(  0-C ,  9-H ) :   0.9816
B(  0-C , 10-H ) :   0.9692 B(  1-C ,  2-C ) :   0.8804 B(  1-C , 11-H ) :   0.9907
B(  1-C , 12-H ) :   0.9738 B(  2-C ,  3-C ) :   0.9286 B(  2-C , 13-H ) :   0.9703
B(  2-C , 14-H ) :   0.9636 B(  3-C ,  4-C ) :   1.0110 B(  3-C , 15-H ) :   0.9435
B(  3-C , 16-H ) :   0.9567 B(  4-C ,  5-O ) :   1.8344 B(  4-C ,  6-O ) :   1.0707
B(  6-O ,  7-C ) :   0.8381 B(  7-C , 17-H ) :   0.9619 B(  7-C , 18-H ) :   0.9675
B(  7-C , 19-H ) :   0.9689

Dispersion correction           -0.004980224
FINAL SINGLE POINT ENERGY      -386.229019966052

DIPOLE MOMENT
-------------

Method             : SCF
Type of density    : Electron Density
Multiplicity       :   1
Irrep              :   0
Energy             :  -386.2362129405786959 Eh
Relativity type    :
Basis              : AO
                                X                 Y                 Z
Electronic contribution:      8.673032779       1.567851192      -1.610552887
Nuclear contribution   :     -8.643633295      -2.171907182       1.959148769
                        -----------------------------------------
Total Dipole Moment    :      0.029399485      -0.604055990       0.348595882
                        -----------------------------------------
Magnitude (a.u.)       :      0.698045169
Magnitude (Debye)      :      1.774289814

Rotational constants in cm-1:             0.184508             0.028065             0.025311
Rotational constants in MHz :          5531.417654           841.358103           758.814482

                             ****ORCA TERMINATED NORMALLY****
TOTAL RUN TIME: 0 days 0 hours 0 minutes 25 seconds 125 msec
