                         Program Version 6.0.0  -   RELEASE  -
|  1> ! r2scan-3c def2/J RI DEFGRID2 scfconv6 printgap
|  2> %output
|  3>     printlevel normal
|  4> end
|  5> %cpcm
|  6>     smd true
|  7>     smdsolvent "water"
|  8> end
|  9> * xyz 0 1
| 10> C -3.3323392639 -0.6672264733 0.7692548919
| 11> C -2.8220634621 0.1543436497 -0.4095552945
| 12> C -1.4067629815 0.6894603316 -0.1967151635
| 13> C -0.3571647102 -0.4184600088 -0.116137991
| 14> C 1.0437577647 0.1297529641 -0.1951634657
| 15> O 1.3637333683 1.1598425678 -0.7497895035
| 16> O 1.9055966182 -0.6753652176 0.4180711304
| 17> C 3.2970913517 -0.3383146765 0.4145096438
| 18> H -2.752308638 -1.5775748647 0.8918208915
| 19> H -3.2703486324 -0.089934117 1.688858972
| 20> H -4.3708760338 -0.9460747892 0.6094774673
| 21> H -2.846632593 -0.4537421441 -1.3159572593
| 22> H -3.4887574263 1.0048568553 -0.5641218625
| 23> H -1.3744332948 1.2827056142 0.719326406
| 24> H -1.1399199248 1.3506472821 -1.0240639476
| 25> H -0.4770948888 -1.0978122922 -0.964399458
| 26> H -0.4436545331 -1.0026776906 0.7987460482
| 27> H 3.8166753818 -1.0328983987 -0.2440223811
| 28> H 3.6535521838 -0.4452808484 1.4362134978
| 29> H 3.4288015958 0.685073347 0.0616382115
| 30> *
| 31>
| 32>                          ****END OF INPUT****

CARTESIAN COORDINATES (ANGSTROEM)
---------------------------------
  C     -3.332339   -0.667226    0.769255
  C     -2.822063    0.154344   -0.409555
  C     -1.406763    0.689460   -0.196715
  C     -0.357165   -0.418460   -0.116138
  C      1.043758    0.129753   -0.195163
  O      1.363733    1.159843   -0.749790
  O      1.905597   -0.675365    0.418071
  C      3.297091   -0.338315    0.414510
  H     -2.752309   -1.577575    0.891821
  H     -3.270349   -0.089934    1.688859
  H     -4.370876   -0.946075    0.609477
  H     -2.846633   -0.453742   -1.315957
  H     -3.488757    1.004857   -0.564122
  H     -1.374433    1.282706    0.719326
  H     -1.139920    1.350647   -1.024064
  H     -0.477095   -1.097812   -0.964399
  H     -0.443655   -1.002678    0.798746
  H      3.816675   -1.032898   -0.244022
  H      3.653552   -0.445281    1.436213
  H      3.428802    0.685073    0.061638

 Total Charge           Charge          ....    0
 Multiplicity           Mult            ....    1
 Number of Electrons    NEL             ....   64
 Basis Dimension        Dim             ....  222

ORBITAL ENERGIES
----------------

  NO   OCC          E(Eh)            E(eV)
   0   2.0000     -19.003555      -517.1130
   1   2.0000     -18.943721      -515.4849
   2   2.0000     -10.162994      -276.5491
   3   2.0000     -10.074672      -274.1458
   4   2.0000     -10.035200      -273.0717
   5   2.0000     -10.022221      -272.7185
   6   2.0000     -10.018411      -272.6148
   7   2.0000     -10.007679      -272.3228
   8   2.0000      -1.078269       -29.3412
   9   2.0000      -0.989384       -26.9225
  10   2.0000      -0.770371       -20.9629
  11   2.0000      -0.722337       -19.6558
  12   2.0000      -0.677935       -18.4476
  13   2.0000      -0.614494       -16.7212
  14   2.0000      -0.543754       -14.7963
  15   2.0000      -0.522268       -14.2116
  16   2.0000      -0.473507       -12.8848
  17   2.0000      -0.459348       -12.4995
  18   2.0000      -0.450984       -12.2719
  19   2.0000      -0.423626       -11.5275
  20   2.0000      -0.405873       -11.0444
  21   2.0000      -0.396006       -10.7759
  22   2.0000      -0.368960       -10.0399
  23   2.0000      -0.360577        -9.8118
  24   2.0000      -0.350050        -9.5253
  25   2.0000      -0.324855        -8.8398
  26   2.0000      -0.320693        -8.7265
  27   2.0000      -0.293960        -7.9991
  28   2.0000      -0.292169        -7.9503
  29   2.0000      -0.288330        -7.8459
  30   2.0000      -0.278340        -7.5740
  31   2.0000      -0.254168        -6.9162
  32   0.0000      -0.020669        -0.5624
  33   0.0000       0.074450         2.0259
  34   0.0000       0.097261         2.6466
  35   0.0000       0.109328         2.9750
  36   0.0000       0.127649         3.4735

MULLIKEN ATOMIC CHARGES
-----------------------
   0 C :   -0.525000
   1 C :   -0.244834
   2 C :   -0.270961
   3 C :   -0.354878
   4 C :    0.435771
   5 O :   -0.521760
   6 O :   -0.213187
   7 C :   -0.321704
   8 H :    0.160857
   9 H :    0.156108
  10 H :    0.156897
  11 H :    0.146869
  12 H :    0.153583
  13 H :    0.157786
  14 H :    0.159784
  15 H :    0.203388
  16 H :    0.186674
  17 H :    0.175879
  18 H :    0.174319
  19 H :    0.184409
Sum of atomic charges:    0.0000000

LOEWDIN ATOMIC CHARGES
----------------------
   0 C :   -0.432701
   1 C :   -0.315179
   2 C :   -0.292252
   3 C :   -0.225941
   4 C :    0.373840
   5 O :   -0.503900
   6 O :   -0.607006
   7 C :   -0.041733
   8 H :    0.152553
   9 H :    0.153409
  10 H :    0.152978
  11 H :    0.155201
  12 H :    0.155635
  13 H :    0.162611
  14 H :    0.168300
  15 H :    0.195583
  16 H :    0.188610
  17 H :    0.183252
  18 H :    0.185386
  19 H :    0.191356

  Mayer bond orders larger than 0.100000
B(  0-C ,  1-C ) :   0.8828 B(  0-C ,  8-H ) :   0.9782 B(  0-C ,  9-H ) :   0.9786
B(  0-C , 10-H ) :   0.9680 B(  1-C ,  2-C ) :   0.8847 B(  1-C , 11-H ) :   0.9895
B(  1-C , 12-H ) :   0.9735 B(  2-C ,  3-C ) :   0.9159 B(  2-C , 13-H ) :   0.9690
B(  2-C , 14-H ) :   0.9655 B(  3-C ,  4-C ) :   1.0122 B(  3-C , 15-H ) :   0.9310
B(  3-C , 16-H ) :   0.9481 B(  4-C ,  5-O ) :   1.7756 B(  4-C ,  6-O ) :   1.0934
B(  6-O ,  7-C ) :   0.8253 B(  7-C , 17-H ) :   0.9531 B(  7-C , 18-H ) :   0.9579
B(  7-C , 19-H ) :   0.9651

Dispersion correction           -0.004980224
FINAL SINGLE POINT ENERGY      -386.232941768332

DIPOLE MOMENT
-------------

Method             : SCF
Type of density    : Electron Density
Multiplicity       :   1
Irrep              :   0
Energy             :  -386.2401347428583449 Eh
Relativity type    :
Basis              : AO
                                X                 Y                 Z
Electronic contribution:      8.668443789       1.237357016      -1.448794155
Nuclear contribution   :     -8.643633295      -2.171907182       1.959148769
                        -----------------------------------------
Total Dipole Moment    :      0.024810494      -0.934550166       0.510354614
                        -----------------------------------------
Magnitude (a.u.)       :      1.065110983
Magnitude (Debye)      :      2.707296966

Rotational constants in cm-1:             0.184508             0.028065             0.025311
Rotational constants in MHz :          5531.417654           841.358103           758.814482

                             ****ORCA TERMINATED NORMALLY****
TOTAL RUN TIME: 0 days 0 hours 0 minutes 33 seconds 113 msec
