                         Program Version 6.0.0  -   RELEASE  -
|  1> ! pbe def2-sv(p) def2/J RI DEFGRID1 loosescf d4 GCP(DFT/SV(P)) printgap
|  2> %output
|  3>     printlevel normal
|  4> end
|  5> * xyz 0 1
|  6> C -2.4840006468 -0.7588633122 1.0354106751
|  7> C -2.0660855439 -0.7769607073 -0.429888145
|  8> C -1.4067414321 0.5431036323 -0.8481278473
|  9> C -0.1135199012 0.7672850475 -0.1078555907
| 10> O 0.1112502916 1.7037690994 0.6328835779
| 11> O 0.7733005763 -0.1839803687 -0.3602998489
| 12> C 2.053971931 -0.0961404345 0.2847774125
| 13> C 2.9576206183 -1.1597015732 -0.3082387756
| 14> H -1.6224406209 -0.5901800941 1.6791411036
| 15> H -3.2004061298 0.0386297524 1.218140472
| 16> H -2.9411320185 -1.7050763613 1.3121598454
| 17> H -2.943864662 -0.9395450099 -1.0560498911
| 18> H -1.3640985908 -1.5931153724 -0.60506354
| 19> H -2.0661230347 1.3856667653 -0.6401381619
| 20> H -1.1794710844 0.5124596793 -1.9142917129
| 21> H 2.451874745 0.912203975 0.1291379614
| 22> H 1.9091721766 -0.2419030199 1.3604664716
| 23> H 3.9310818611 -1.1096645691 0.1681487205
| 24> H 2.5291857911 -2.1442660129 -0.1466336164
| 25> H 3.0718965815 -0.9981590314 -1.3760323522
| 26> *
| 27>
| 28>                          ****END OF INPUT****

CARTESIAN COORDINATES (ANGSTROEM)
---------------------------------
  C     -2.484001   -0.758863    1.035411
  C     -2.066086   -0.776961   -0.429888
  C     -1.406741    0.543104   -0.848128
  C     -0.113520    0.767285   -0.107856
  O      0.111250    1.703769    0.632884
  O      0.773301   -0.183980   -0.360300
  C      2.053972   -0.096140    0.284777
  C      2.957621   -1.159702   -0.308239
  H     -1.622441   -0.590180    1.679141
  H     -3.200406    0.038630    1.218140
  H     -2.941132   -1.705076    1.312160
  H     -2.943865   -0.939545   -1.056050
  H     -1.364099   -1.593115   -0.605064
  H     -2.066123    1.385667   -0.640138
  H     -1.179471    0.512460   -1.914292
  H      2.451875    0.912204    0.129138
  H      1.909172   -0.241903    1.360466
  H      3.931082   -1.109665    0.168149
  H      2.529186   -2.144266   -0.146634
  H      3.071897   -0.998159   -1.376032

 Total Charge           Charge          ....    0
 Multiplicity           Mult            ....    1
 Number of Electrons    NEL             ....   64
 Basis Dimension        Dim             ....  136

ORBITAL ENERGIES
----------------

  NO   OCC          E(Eh)            E(eV)
   0   2.0000     -18.797586      -511.5083
   1   2.0000     -18.728741      -509.6349
   2   2.0000     -10.003005      -272.1956
   3   2.0000      -9.947437      -270.6835
   4   2.0000      -9.896029      -269.2846
   5   2.0000      -9.893595      -269.2184
   6   2.0000      -9.889919      -269.1184
   7   2.0000      -9.877643      -268.7843
   8   2.0000      -1.004716       -27.3397
   9   2.0000      -0.905384       -24.6368
  10   2.0000      -0.730780       -19.8855
  11   2.0000      -0.698583       -19.0094
  12   2.0000      -0.636519       -17.3206
  13   2.0000      -0.581698       -15.8288
  14   2.0000      -0.535581       -14.5739
  15   2.0000      -0.507475       -13.8091
  16   2.0000      -0.452495       -12.3130
  17   2.0000      -0.434033       -11.8106
  18   2.0000      -0.416158       -11.3242
  19   2.0000      -0.401721       -10.9314
  20   2.0000      -0.391922       -10.6648
  21   2.0000      -0.364424        -9.9165
  22   2.0000      -0.362061        -9.8522
  23   2.0000      -0.354377        -9.6431
  24   2.0000      -0.342355        -9.3160
  25   2.0000      -0.322171        -8.7667
  26   2.0000      -0.313693        -8.5360
  27   2.0000      -0.299540        -8.1509
  28   2.0000      -0.296999        -8.0817
  29   2.0000      -0.294403        -8.0111
  30   2.0000      -0.255618        -6.9557
  31   2.0000      -0.211445        -5.7537
  32   0.0000      -0.018705        -0.5090
  33   0.0000       0.034565         0.9406
  34   0.0000       0.051901         1.4123
  35   0.0000       0.071246         1.9387
  36   0.0000       0.079319         2.1584

MULLIKEN ATOMIC CHARGES
-----------------------
   0 C :   -0.287027
   1 C :   -0.215149
   2 C :   -0.100999
   3 C :    0.082218
   4 O :   -0.208837
   5 O :   -0.244563
   6 C :   -0.028339
   7 C :   -0.272637
   8 H :    0.118138
   9 H :    0.103477
  10 H :    0.106053
  11 H :    0.093787
  12 H :    0.102403
  13 H :    0.096878
  14 H :    0.105930
  15 H :    0.107054
  16 H :    0.102391
  17 H :    0.111017
  18 H :    0.113825
  19 H :    0.114380
Sum of atomic charges:   -0.0000000

LOEWDIN ATOMIC CHARGES
----------------------
   0 C :   -0.342178
   1 C :   -0.230209
   2 C :   -0.242608
   3 C :    0.031384
   4 O :   -0.168795
   5 O :   -0.071293
   6 C :   -0.108321
   7 C :   -0.350783
   8 H :    0.120582
   9 H :    0.120568
  10 H :    0.120683
  11 H :    0.118503
  12 H :    0.119283
  13 H :    0.131997
  14 H :    0.137198
  15 H :    0.116714
  16 H :    0.114859
  17 H :    0.130219
  18 H :    0.125842
  19 H :    0.126356

  Mayer bond orders larger than 0.100000
B(  0-C ,  1-C ) :   1.1523 B(  0-C ,  8-H ) :   0.9482 B(  0-C ,  9-H ) :   0.9535
B(  0-C , 10-H ) :   0.9515 B(  1-C ,  2-C ) :   1.1094 B(  1-C , 11-H ) :   0.9270
B(  1-C , 12-H ) :   0.9239 B(  2-C ,  3-C ) :   1.0380 B(  2-C , 13-H ) :   0.9104
B(  2-C , 14-H ) :   0.8941 B(  3-C ,  4-O ) :   2.0584 B(  3-C ,  5-O ) :   1.1894
B(  5-O ,  6-C ) :   0.9147 B(  6-C ,  7-C ) :   1.1494 B(  6-C , 15-H ) :   0.9286
B(  6-C , 16-H ) :   0.9337 B(  7-C , 17-H ) :   0.9445 B(  7-C , 18-H ) :   0.9493
B(  7-C , 19-H ) :   0.9508

Dispersion correction           -0.015033326
FINAL SINGLE POINT ENERGY      -385.457508635326

DIPOLE MOMENT
-------------

Method             : SCF
Type of density    : Electron Density
Multiplicity       :   1
Irrep              :   0
Energy             :  -385.5324267108352387 Eh
Relativity type    :
Basis              : AO
                                X                 Y                 Z
Electronic contribution:      1.514919109       5.325340988      -0.469343819
Nuclear contribution   :     -1.323138002      -6.050169795       0.125051630
                        -----------------------------------------
Total Dipole Moment    :      0.191781106      -0.724828807      -0.344292189
                        -----------------------------------------
Magnitude (a.u.)       :      0.825041758
Magnitude (Debye)      :      2.097089491

Rotational constants in cm-1:             0.110119             0.037984             0.033665
Rotational constants in MHz :          3301.296736          1138.717336          1009.244154

                             ****ORCA TERMINATED NORMALLY****
TOTAL RUN TIME: 0 days 0 hours 0 minutes 10 seconds 699 msec
