                         Program Version 6.0.0  -   RELEASE  -
|  1> ! pbe def2-sv(p) def2/J RI DEFGRID1 loosescf d4 GCP(DFT/SV(P)) printgap
|  2> %output
|  3>     printlevel normal
|  4> end
|  5> * xyz 0 1
|  6> C -2.359409967 -1.2895729983 -0.1857234391
|  7> C -1.9290200302 -0.2045638093 0.7955047185
|  8> C -1.553716888 1.1135019195 0.1162628892
|  9> C -0.3666302187 0.9839750821 -0.8469298177
| 10> C 0.8532867417 0.4871315151 -0.1182374684
| 11> O 1.4028028917 1.0608199501 0.7988888562
| 12> O 1.2721163182 -0.6801983747 -0.5971327002
| 13> C 2.4261186343 -1.2698023214 0.0063146062
| 14> H -3.1513451772 -0.9213098934 -0.8334078787
| 15> H -1.5241152907 -1.6123237765 -0.8015434752
| 16> H -2.7329443376 -2.1550843413 0.3557318445
| 17> H -2.7477108671 -0.006622424 1.49062327
| 18> H -1.0796843759 -0.5599493646 1.3850072207
| 19> H -1.2941388536 1.8433297179 0.885798776
| 20> H -2.4113790864 1.4919761758 -0.4411167334
| 21> H -0.1344911121 1.9690657851 -1.2538815466
| 22> H -0.5925614003 0.2995482171 -1.6617861886
| 23> H 3.2482519611 -0.5532395257 0.0178732356
| 24> H 2.6678011817 -2.1347968943 -0.6030367069
| 25> H 2.199565515 -1.5655215949 1.0314075814
| 26> *
| 27>
| 28>                          ****END OF INPUT****

CARTESIAN COORDINATES (ANGSTROEM)
---------------------------------
  C     -2.359410   -1.289573   -0.185723
  C     -1.929020   -0.204564    0.795505
  C     -1.553717    1.113502    0.116263
  C     -0.366630    0.983975   -0.846930
  C      0.853287    0.487132   -0.118237
  O      1.402803    1.060820    0.798889
  O      1.272116   -0.680198   -0.597133
  C      2.426119   -1.269802    0.006315
  H     -3.151345   -0.921310   -0.833408
  H     -1.524115   -1.612324   -0.801543
  H     -2.732944   -2.155084    0.355732
  H     -2.747711   -0.006622    1.490623
  H     -1.079684   -0.559949    1.385007
  H     -1.294139    1.843330    0.885799
  H     -2.411379    1.491976   -0.441117
  H     -0.134491    1.969066   -1.253882
  H     -0.592561    0.299548   -1.661786
  H      3.248252   -0.553240    0.017873
  H      2.667801   -2.134797   -0.603037
  H      2.199566   -1.565522    1.031408

 Total Charge           Charge          ....    0
 Multiplicity           Mult            ....    1
 Number of Electrons    NEL             ....   64
 Basis Dimension        Dim             ....  136

ORBITAL ENERGIES
----------------

  NO   OCC          E(Eh)            E(eV)
   0   2.0000     -18.801426      -511.6128
   1   2.0000     -18.731804      -509.7183
   2   2.0000     -10.004540      -272.2374
   3   2.0000      -9.942337      -270.5448
   4   2.0000      -9.895880      -269.2806
   5   2.0000      -9.890753      -269.1411
   6   2.0000      -9.885811      -269.0066
   7   2.0000      -9.875081      -268.7146
   8   2.0000      -1.006157       -27.3789
   9   2.0000      -0.908673       -24.7263
  10   2.0000      -0.732376       -19.9290
  11   2.0000      -0.682568       -18.5736
  12   2.0000      -0.645902       -17.5759
  13   2.0000      -0.584988       -15.9183
  14   2.0000      -0.524197       -14.2641
  15   2.0000      -0.496741       -13.5170
  16   2.0000      -0.448437       -12.2026
  17   2.0000      -0.437670       -11.9096
  18   2.0000      -0.424893       -11.5619
  19   2.0000      -0.410888       -11.1808
  20   2.0000      -0.396858       -10.7990
  21   2.0000      -0.372037       -10.1236
  22   2.0000      -0.361197        -9.8287
  23   2.0000      -0.346989        -9.4421
  24   2.0000      -0.341153        -9.2832
  25   2.0000      -0.325681        -8.8622
  26   2.0000      -0.303142        -8.2489
  27   2.0000      -0.291540        -7.9332
  28   2.0000      -0.286295        -7.7905
  29   2.0000      -0.285118        -7.7584
  30   2.0000      -0.258626        -7.0376
  31   2.0000      -0.217583        -5.9207
  32   0.0000      -0.021289        -0.5793
  33   0.0000       0.035151         0.9565
  34   0.0000       0.055245         1.5033
  35   0.0000       0.070777         1.9259
  36   0.0000       0.078301         2.1307

MULLIKEN ATOMIC CHARGES
-----------------------
   0 C :   -0.293421
   1 C :   -0.192451
   2 C :   -0.181657
   3 C :   -0.126255
   4 C :    0.085262
   5 O :   -0.211281
   6 O :   -0.239426
   7 C :   -0.112284
   8 H :    0.097192
   9 H :    0.110625
  10 H :    0.103284
  11 H :    0.090140
  12 H :    0.103842
  13 H :    0.103266
  14 H :    0.089209
  15 H :    0.111176
  16 H :    0.101155
  17 H :    0.121189
  18 H :    0.121528
  19 H :    0.118907
Sum of atomic charges:   -0.0000000

LOEWDIN ATOMIC CHARGES
----------------------
   0 C :   -0.345701
   1 C :   -0.237824
   2 C :   -0.218307
   3 C :   -0.247940
   4 C :    0.035519
   5 O :   -0.171392
   6 O :   -0.072356
   7 C :   -0.204605
   8 H :    0.116499
   9 H :    0.117351
  10 H :    0.120504
  11 H :    0.118530
  12 H :    0.117531
  13 H :    0.124470
  14 H :    0.117524
  15 H :    0.142297
  16 H :    0.127791
  17 H :    0.120615
  18 H :    0.120513
  19 H :    0.118983

  Mayer bond orders larger than 0.100000
B(  0-C ,  1-C ) :   1.1523 B(  0-C ,  8-H ) :   0.9551 B(  0-C ,  9-H ) :   0.9461
B(  0-C , 10-H ) :   0.9513 B(  1-C ,  2-C ) :   1.1351 B(  1-C , 11-H ) :   0.9250
B(  1-C , 12-H ) :   0.9147 B(  2-C ,  3-C ) :   1.1115 B(  2-C , 13-H ) :   0.9170
B(  2-C , 14-H ) :   0.9233 B(  3-C ,  4-C ) :   1.0218 B(  3-C , 15-H ) :   0.8931
B(  3-C , 16-H ) :   0.9041 B(  4-C ,  5-O ) :   2.0524 B(  4-C ,  6-O ) :   1.2045
B(  6-O ,  7-C ) :   0.9399 B(  7-C , 17-H ) :   0.9487 B(  7-C , 18-H ) :   0.9592
B(  7-C , 19-H ) :   0.9541

Dispersion correction           -0.015940505
FINAL SINGLE POINT ENERGY      -385.453045934448

DIPOLE MOMENT
-------------

Method             : SCF
Type of density    : Electron Density
Multiplicity       :   1
Irrep              :   0
Energy             :  -385.5278158209601997 Eh
Relativity type    :
Basis              : AO
                                X                 Y                 Z
Electronic contribution:      6.937056480       3.123813854       0.012765853
Nuclear contribution   :     -7.046076115      -3.657829415      -0.398853832
                        -----------------------------------------
Total Dipole Moment    :     -0.109019635      -0.534015561      -0.386087979
                        -----------------------------------------
Magnitude (a.u.)       :      0.667923519
Magnitude (Debye)      :      1.697726666

Rotational constants in cm-1:             0.102399             0.044016             0.036662
Rotational constants in MHz :          3069.859041          1319.577303          1099.091701

                             ****ORCA TERMINATED NORMALLY****
TOTAL RUN TIME: 0 days 0 hours 0 minutes 10 seconds 919 msec
