                         Program Version 6.0.0  -   RELEASE  -
|  1> ! pbe def2-sv(p) def2/J RI DEFGRID1 loosescf d4 GCP(DFT/SV(P)) printgap
|  2> %output
|  3>     printlevel normal
|  4> end
|  5> * xyz 0 1
|  6> C -3.2947480563 0.011371927 0.9175147295
|  7> C -2.6694439393 -0.574007656 -0.3437805878
|  8> C -1.1489017812 -0.708523389 -0.2544179061
|  9> C -0.4470839034 0.6480915705 -0.1962189089
| 10> C 1.0548290348 0.5548459014 -0.2139903415
| 11> O 1.7876783092 1.4300507389 -0.6313872269
| 12> O 1.5102107303 -0.5822310357 0.2960622766
| 13> C 2.9272574851 -0.7613787881 0.3475030393
| 14> H -3.0037117677 -0.5686757851 1.7901258098
| 15> H -2.9854751035 1.0422332054 1.0672896639
| 16> H -4.3789919302 -0.0062925691 0.8406376814
| 17> H -3.0901375646 -1.5661019546 -0.518003318
| 18> H -2.9276194315 0.0501015803 -1.2016074268
| 19> H -0.789091484 -1.2536008175 -1.1291695441
| 20> H -0.8844894537 -1.289438413 0.6298337579
| 21> H -0.7122933754 1.1677956441 0.7275355416
| 22> H -0.7484349149 1.284901178 -1.0296875583
| 23> H 3.349349083 -0.689713713 -0.6555532182
| 24> H 3.0814611257 -1.7503092583 0.7671749877
| 25> H 3.37835934 0.0070444055 0.9763854303
| 26> *
| 27>
| 28>                          ****END OF INPUT****

CARTESIAN COORDINATES (ANGSTROEM)
---------------------------------
  C     -3.294748    0.011372    0.917515
  C     -2.669444   -0.574008   -0.343781
  C     -1.148902   -0.708523   -0.254418
  C     -0.447084    0.648092   -0.196219
  C      1.054829    0.554846   -0.213990
  O      1.787678    1.430051   -0.631387
  O      1.510211   -0.582231    0.296062
  C      2.927257   -0.761379    0.347503
  H     -3.003712   -0.568676    1.790126
  H     -2.985475    1.042233    1.067290
  H     -4.378992   -0.006293    0.840638
  H     -3.090138   -1.566102   -0.518003
  H     -2.927619    0.050102   -1.201607
  H     -0.789091   -1.253601   -1.129170
  H     -0.884489   -1.289438    0.629834
  H     -0.712293    1.167796    0.727536
  H     -0.748435    1.284901   -1.029688
  H      3.349349   -0.689714   -0.655553
  H      3.081461   -1.750309    0.767175
  H      3.378359    0.007044    0.976385

 Total Charge           Charge          ....    0
 Multiplicity           Mult            ....    1
 Number of Electrons    NEL             ....   64
 Basis Dimension        Dim             ....  136

ORBITAL ENERGIES
----------------

  NO   OCC          E(Eh)            E(eV)
   0   2.0000     -18.799302      -511.5550
   1   2.0000     -18.729166      -509.6465
   2   2.0000     -10.001949      -272.1669
   3   2.0000      -9.940757      -270.5017
   4   2.0000      -9.896345      -269.2932
   5   2.0000      -9.888050      -269.0675
   6   2.0000      -9.886993      -269.0388
   7   2.0000      -9.877189      -268.7720
   8   2.0000      -1.005054       -27.3489
   9   2.0000      -0.905067       -24.6281
  10   2.0000      -0.732733       -19.9387
  11   2.0000      -0.684428       -18.6242
  12   2.0000      -0.641975       -17.4690
  13   2.0000      -0.588109       -16.0033
  14   2.0000      -0.515296       -14.0219
  15   2.0000      -0.508152       -13.8275
  16   2.0000      -0.451072       -12.2743
  17   2.0000      -0.443191       -12.0598
  18   2.0000      -0.414343       -11.2749
  19   2.0000      -0.411340       -11.1931
  20   2.0000      -0.386890       -10.5278
  21   2.0000      -0.377269       -10.2660
  22   2.0000      -0.361367        -9.8333
  23   2.0000      -0.356258        -9.6943
  24   2.0000      -0.332346        -9.0436
  25   2.0000      -0.322313        -8.7706
  26   2.0000      -0.305350        -8.3090
  27   2.0000      -0.295366        -8.0373
  28   2.0000      -0.288069        -7.8387
  29   2.0000      -0.286647        -7.8001
  30   2.0000      -0.256195        -6.9714
  31   2.0000      -0.212584        -5.7847
  32   0.0000      -0.016917        -0.4603
  33   0.0000       0.034200         0.9306
  34   0.0000       0.057365         1.5610
  35   0.0000       0.065990         1.7957
  36   0.0000       0.068903         1.8749

MULLIKEN ATOMIC CHARGES
-----------------------
   0 C :   -0.298840
   1 C :   -0.154337
   2 C :   -0.176153
   3 C :   -0.180493
   4 C :    0.115985
   5 O :   -0.210764
   6 O :   -0.239770
   7 C :   -0.107356
   8 H :    0.099427
   9 H :    0.109411
  10 H :    0.105555
  11 H :    0.086621
  12 H :    0.083124
  13 H :    0.088920
  14 H :    0.093030
  15 H :    0.121787
  16 H :    0.104900
  17 H :    0.119685
  18 H :    0.120301
  19 H :    0.118966
Sum of atomic charges:    0.0000000

LOEWDIN ATOMIC CHARGES
----------------------
   0 C :   -0.343918
   1 C :   -0.233719
   2 C :   -0.228351
   3 C :   -0.246473
   4 C :    0.033558
   5 O :   -0.173003
   6 O :   -0.069719
   7 C :   -0.202857
   8 H :    0.117603
   9 H :    0.116542
  10 H :    0.121248
  11 H :    0.117156
  12 H :    0.114414
  13 H :    0.118135
  14 H :    0.118773
  15 H :    0.143646
  16 H :    0.137233
  17 H :    0.120183
  18 H :    0.119917
  19 H :    0.119631

  Mayer bond orders larger than 0.100000
B(  0-C ,  1-C ) :   1.1498 B(  0-C ,  8-H ) :   0.9551 B(  0-C ,  9-H ) :   0.9513
B(  0-C , 10-H ) :   0.9515 B(  1-C ,  2-C ) :   1.1225 B(  1-C , 11-H ) :   0.9275
B(  1-C , 12-H ) :   0.9240 B(  2-C ,  3-C ) :   1.1181 B(  2-C , 13-H ) :   0.9301
B(  2-C , 14-H ) :   0.9124 B(  3-C ,  4-C ) :   1.0383 B(  3-C , 15-H ) :   0.8823
B(  3-C , 16-H ) :   0.9088 B(  4-C ,  5-O ) :   2.0652 B(  4-C ,  6-O ) :   1.2103
B(  6-O ,  7-C ) :   0.9403 B(  7-C , 17-H ) :   0.9514 B(  7-C , 18-H ) :   0.9586
B(  7-C , 19-H ) :   0.9529

Dispersion correction           -0.014944927
FINAL SINGLE POINT ENERGY      -385.451084725492

DIPOLE MOMENT
-------------

Method             : SCF
Type of density    : Electron Density
Multiplicity       :   1
Irrep              :   0
Energy             :  -385.5262110850941326 Eh
Relativity type    :
Basis              : AO
                                X                 Y                 Z
Electronic contribution:      8.878613105       2.654839860      -1.791973243
Nuclear contribution   :     -9.061705973      -3.338612840       2.119939487
                        -----------------------------------------
Total Dipole Moment    :     -0.183092868      -0.683772980       0.327966244
                        -----------------------------------------
Magnitude (a.u.)       :      0.780147642
Magnitude (Debye)      :      1.982977717

Rotational constants in cm-1:             0.154368             0.030156             0.027472
Rotational constants in MHz :          4627.825369           904.044808           823.604652

                             ****ORCA TERMINATED NORMALLY****
TOTAL RUN TIME: 0 days 0 hours 0 minutes 9 seconds 577 msec
