                         Program Version 6.0.0  -   RELEASE  -
|  1> ! pbe def2-sv(p) def2/J RI DEFGRID1 loosescf d4 GCP(DFT/SV(P)) printgap
|  2> %output
|  3>     printlevel normal
|  4> end
|  5> * xyz 0 1
|  6> C -2.7581007074 0.1347979187 0.0034653742
|  7> C -1.362418603 -0.4118769041 0.2802615522
|  8> C -0.3014651499 0.5197722197 -0.2856638139
|  9> N 1.0555339107 0.0382738912 -0.0540154908
| 10> O 1.9676363301 0.7223774025 -0.4811379595
| 11> O 1.2194574538 -1.0036788301 0.5431796982
| 12> H -2.9280681232 0.2297991799 -1.0655997735
| 13> H -3.5080318321 -0.5363011322 0.4107896629
| 14> H -2.8863295096 1.1112181009 0.4627971592
| 15> H -1.2542247746 -1.4004651982 -0.1683762379
| 16> H -1.2124069827 -0.523351842 1.3551430194
| 17> H -0.412399543 0.6441052798 -1.3666221653
| 18> H -0.3636296687 1.5163664145 0.160756216
| 19> *
| 20>
| 21>                          ****END OF INPUT****

CARTESIAN COORDINATES (ANGSTROEM)
---------------------------------
  C     -2.758101    0.134798    0.003465
  C     -1.362419   -0.411877    0.280262
  C     -0.301465    0.519772   -0.285664
  N      1.055534    0.038274   -0.054015
  O      1.967636    0.722377   -0.481138
  O      1.219457   -1.003679    0.543180
  H     -2.928068    0.229799   -1.065600
  H     -3.508032   -0.536301    0.410790
  H     -2.886330    1.111218    0.462797
  H     -1.254225   -1.400465   -0.168376
  H     -1.212407   -0.523352    1.355143
  H     -0.412400    0.644105   -1.366622
  H     -0.363630    1.516366    0.160756

 Total Charge           Charge          ....    0
 Multiplicity           Mult            ....    1
 Number of Electrons    NEL             ....   48
 Basis Dimension        Dim             ....   98

ORBITAL ENERGIES
----------------

  NO   OCC          E(Eh)            E(eV)
   0   2.0000     -18.784118      -511.1418
   1   2.0000     -18.777764      -510.9689
   2   2.0000     -14.206283      -386.5726
   3   2.0000      -9.949399      -270.7369
   4   2.0000      -9.908560      -269.6256
   5   2.0000      -9.895477      -269.2696
   6   2.0000      -1.133323       -30.8393
   7   2.0000      -0.962373       -26.1875
   8   2.0000      -0.768678       -20.9168
   9   2.0000      -0.687518       -18.7083
  10   2.0000      -0.573296       -15.6002
  11   2.0000      -0.528369       -14.3777
  12   2.0000      -0.507905       -13.8208
  13   2.0000      -0.480580       -13.0773
  14   2.0000      -0.448446       -12.2028
  15   2.0000      -0.429401       -11.6846
  16   2.0000      -0.393783       -10.7154
  17   2.0000      -0.366693        -9.9782
  18   2.0000      -0.350794        -9.5456
  19   2.0000      -0.327462        -8.9107
  20   2.0000      -0.316273        -8.6062
  21   2.0000      -0.272188        -7.4066
  22   2.0000      -0.255587        -6.9549
  23   2.0000      -0.232777        -6.3342
  24   0.0000      -0.095904        -2.6097
  25   0.0000       0.021514         0.5854
  26   0.0000       0.056767         1.5447
  27   0.0000       0.064303         1.7498
  28   0.0000       0.084024         2.2864

MULLIKEN ATOMIC CHARGES
-----------------------
   0 C :   -0.280292
   1 C :   -0.198767
   2 C :   -0.098522
   3 N :    0.203884
   4 O :   -0.228123
   5 O :   -0.211441
   6 H :    0.105873
   7 H :    0.117335
   8 H :    0.105765
   9 H :    0.110773
  10 H :    0.110873
  11 H :    0.131174
  12 H :    0.131466
Sum of atomic charges:   -0.0000000

LOEWDIN ATOMIC CHARGES
----------------------
   0 C :   -0.338303
   1 C :   -0.249070
   2 C :   -0.187990
   3 N :    0.238549
   4 O :   -0.195264
   5 O :   -0.176869
   6 H :    0.120305
   7 H :    0.127843
   8 H :    0.120262
   9 H :    0.127672
  10 H :    0.127684
  11 H :    0.142492
  12 H :    0.142689

  Mayer bond orders larger than 0.100000
B(  0-C ,  1-C ) :   1.1316 B(  0-C ,  6-H ) :   0.9535 B(  0-C ,  7-H ) :   0.9511
B(  0-C ,  8-H ) :   0.9536 B(  1-C ,  2-C ) :   1.1207 B(  1-C ,  9-H ) :   0.9199
B(  1-C , 10-H ) :   0.9197 B(  2-C ,  3-N ) :   0.8959 B(  2-C , 11-H ) :   0.9127
B(  2-C , 12-H ) :   0.9124 B(  3-N ,  4-O ) :   1.5303 B(  3-N ,  5-O ) :   1.5632
B(  4-O ,  5-O ) :   0.3177

Dispersion correction           -0.008348901
FINAL SINGLE POINT ENERGY      -322.969347980012

DIPOLE MOMENT
-------------

Method             : SCF
Type of density    : Electron Density
Multiplicity       :   1
Irrep              :   0
Energy             :  -323.0201686677345378 Eh
Relativity type    :
Basis              : AO
                                X                 Y                 Z
Electronic contribution:     10.418882187      -0.650930112       0.056017097
Nuclear contribution   :    -11.735110043       0.973021433      -0.197436288
                        -----------------------------------------
Total Dipole Moment    :     -1.316227857       0.322091322      -0.141419191
                        -----------------------------------------
Magnitude (a.u.)       :      1.362423568
Magnitude (Debye)      :      3.463005499

Rotational constants in cm-1:             0.325543             0.066346             0.056857
Rotational constants in MHz :          9759.540804          1988.988699          1704.522911

                             ****ORCA TERMINATED NORMALLY****
TOTAL RUN TIME: 0 days 0 hours 0 minutes 9 seconds 621 msec
