                         Program Version 6.0.0  -   RELEASE  -
|  1> ! pbe def2-sv(p) def2/J RI DEFGRID1 loosescf d4 GCP(DFT/SV(P)) printgap
|  2> %output
|  3>     printlevel normal
|  4> end
|  5> * xyz 0 1
|  6> C -3.3323392639 -0.6672264733 0.7692548919
|  7> C -2.8220634621 0.1543436497 -0.4095552945
|  8> C -1.4067629815 0.6894603316 -0.1967151635
|  9> C -0.3571647102 -0.4184600088 -0.116137991
| 10> C 1.0437577647 0.1297529641 -0.1951634657
| 11> O 1.3637333683 1.1598425678 -0.7497895035
| 12> O 1.9055966182 -0.6753652176 0.4180711304
| 13> C 3.2970913517 -0.3383146765 0.4145096438
| 14> H -2.752308638 -1.5775748647 0.8918208915
| 15> H -3.2703486324 -0.089934117 1.688858972
| 16> H -4.3708760338 -0.9460747892 0.6094774673
| 17> H -2.846632593 -0.4537421441 -1.3159572593
| 18> H -3.4887574263 1.0048568553 -0.5641218625
| 19> H -1.3744332948 1.2827056142 0.719326406
| 20> H -1.1399199248 1.3506472821 -1.0240639476
| 21> H -0.4770948888 -1.0978122922 -0.964399458
| 22> H -0.4436545331 -1.0026776906 0.7987460482
| 23> H 3.8166753818 -1.0328983987 -0.2440223811
| 24> H 3.6535521838 -0.4452808484 1.4362134978
| 25> H 3.4288015958 0.685073347 0.0616382115
| 26> *
| 27>
| 28>                          ****END OF INPUT****

CARTESIAN COORDINATES (ANGSTROEM)
---------------------------------
  C     -3.332339   -0.667226    0.769255
  C     -2.822063    0.154344   -0.409555
  C     -1.406763    0.689460   -0.196715
  C     -0.357165   -0.418460   -0.116138
  C      1.043758    0.129753   -0.195163
  O      1.363733    1.159843   -0.749790
  O      1.905597   -0.675365    0.418071
  C      3.297091   -0.338315    0.414510
  H     -2.752309   -1.577575    0.891821
  H     -3.270349   -0.089934    1.688859
  H     -4.370876   -0.946075    0.609477
  H     -2.846633   -0.453742   -1.315957
  H     -3.488757    1.004857   -0.564122
  H     -1.374433    1.282706    0.719326
  H     -1.139920    1.350647   -1.024064
  H     -0.477095   -1.097812   -0.964399
  H     -0.443655   -1.002678    0.798746
  H      3.816675   -1.032898   -0.244022
  H      3.653552   -0.445281    1.436213
  H      3.428802    0.685073    0.061638

 Total Charge           Charge          ....    0
 Multiplicity           Mult            ....    1
 Number of Electrons    NEL             ....   64
 Basis Dimension        Dim             ....  136

ORBITAL ENERGIES
----------------

  NO   OCC          E(Eh)            E(eV)
   0   2.0000     -18.797907      -511.5170
   1   2.0000     -18.733872      -509.7746
   2   2.0000     -10.004294      -272.2307
   3   2.0000      -9.938281      -270.4344
   4   2.0000      -9.895927      -269.2819
   5   2.0000      -9.884906      -268.9820
   6   2.0000      -9.884327      -268.9662
   7   2.0000      -9.874922      -268.7103
   8   2.0000      -1.003218       -27.2989
   9   2.0000      -0.909443       -24.7472
  10   2.0000      -0.729056       -19.8386
  11   2.0000      -0.685263       -18.6470
  12   2.0000      -0.644061       -17.5258
  13   2.0000      -0.583052       -15.8656
  14   2.0000      -0.517895       -14.0926
  15   2.0000      -0.497152       -13.5282
  16   2.0000      -0.451164       -12.2768
  17   2.0000      -0.439158       -11.9501
  18   2.0000      -0.419958       -11.4276
  19   2.0000      -0.405416       -11.0319
  20   2.0000      -0.394037       -10.7223
  21   2.0000      -0.384690       -10.4680
  22   2.0000      -0.355908        -9.6847
  23   2.0000      -0.348671        -9.4878
  24   2.0000      -0.343173        -9.3382
  25   2.0000      -0.316080        -8.6010
  26   2.0000      -0.301452        -8.2029
  27   2.0000      -0.288978        -7.8635
  28   2.0000      -0.285773        -7.7763
  29   2.0000      -0.283169        -7.7054
  30   2.0000      -0.255412        -6.9501
  31   2.0000      -0.220990        -6.0134
  32   0.0000      -0.017607        -0.4791
  33   0.0000       0.037476         1.0198
  34   0.0000       0.057684         1.5696
  35   0.0000       0.070089         1.9072
  36   0.0000       0.072316         1.9678

MULLIKEN ATOMIC CHARGES
-----------------------
   0 C :   -0.293297
   1 C :   -0.162615
   2 C :   -0.177733
   3 C :   -0.185119
   4 C :    0.120780
   5 O :   -0.201827
   6 O :   -0.240623
   7 C :   -0.130649
   8 H :    0.107545
   9 H :    0.098452
  10 H :    0.104021
  11 H :    0.082776
  12 H :    0.087471
  13 H :    0.087572
  14 H :    0.105423
  15 H :    0.112410
  16 H :    0.108288
  17 H :    0.121294
  18 H :    0.122114
  19 H :    0.133716
Sum of atomic charges:    0.0000000

LOEWDIN ATOMIC CHARGES
----------------------
   0 C :   -0.343945
   1 C :   -0.233449
   2 C :   -0.223809
   3 C :   -0.250531
   4 C :    0.038860
   5 O :   -0.167574
   6 O :   -0.076867
   7 C :   -0.209183
   8 H :    0.115829
   9 H :    0.117314
  10 H :    0.119901
  11 H :    0.113692
  12 H :    0.117559
  13 H :    0.117783
  14 H :    0.125031
  15 H :    0.142938
  16 H :    0.132061
  17 H :    0.119705
  18 H :    0.120488
  19 H :    0.124197

  Mayer bond orders larger than 0.100000
B(  0-C ,  1-C ) :   1.1432 B(  0-C ,  8-H ) :   0.9530 B(  0-C ,  9-H ) :   0.9555
B(  0-C , 10-H ) :   0.9520 B(  1-C ,  2-C ) :   1.1275 B(  1-C , 11-H ) :   0.9263
B(  1-C , 12-H ) :   0.9278 B(  2-C ,  3-C ) :   1.1263 B(  2-C , 13-H ) :   0.9270
B(  2-C , 14-H ) :   0.9124 B(  3-C ,  4-C ) :   1.0097 B(  3-C , 15-H ) :   0.8889
B(  3-C , 16-H ) :   0.9034 B(  4-C ,  5-O ) :   2.0649 B(  4-C ,  6-O ) :   1.2211
B(  6-O ,  7-C ) :   0.9364 B(  7-C , 17-H ) :   0.9604 B(  7-C , 18-H ) :   0.9613
B(  7-C , 19-H ) :   0.9301

Dispersion correction           -0.014745338
FINAL SINGLE POINT ENERGY      -385.451903672655

DIPOLE MOMENT
-------------

Method             : SCF
Type of density    : Electron Density
Multiplicity       :   1
Irrep              :   0
Energy             :  -385.5272389101568820 Eh
Relativity type    :
Basis              : AO
                                X                 Y                 Z
Electronic contribution:      8.765630201       1.598647994      -1.640168719
Nuclear contribution   :     -8.643633295      -2.171907182       1.959148769
                        -----------------------------------------
Total Dipole Moment    :      0.121996906      -0.573259188       0.318980050
                        -----------------------------------------
Magnitude (a.u.)       :      0.667276265
Magnitude (Debye)      :      1.696081475

Rotational constants in cm-1:             0.184508             0.028065             0.025311
Rotational constants in MHz :          5531.417654           841.358103           758.814482

                             ****ORCA TERMINATED NORMALLY****
TOTAL RUN TIME: 0 days 0 hours 0 minutes 9 seconds 803 msec
