                         Program Version 6.0.0  -   RELEASE  -
|  1> ! r2scan-3c def2/J RI DEFGRID2 scfconv6 printgap
|  2> %output
|  3>     printlevel normal
|  4> end
|  5> * xyz 0 1
|  6> C -3.6638383248 -0.4499102832 0.7691770883
|  7> C -2.6469283609 -0.2792835706 -0.3531760687
|  8> C -1.2464520958 -0.0210111506 0.1977165684
|  9> C -0.2196654375 0.149434236 -0.9316712544
| 10> C 1.1322993745 0.4181021832 -0.3304190675
| 11> O 1.6043335473 1.5186105684 -0.1335542929
| 12> O 1.752181327 -0.7076281888 0.0047576525
| 13> C 3.0280249151 -0.5975428769 0.640911543
| 14> H -3.3933771749 -1.2900813037 1.4043151538
| 15> H -3.7052515952 0.4454083474 1.3851175757
| 16> H -4.6540513787 -0.6321491806 0.3601517646
| 17> H -2.6306586076 -1.179806629 -0.9695265728
| 18> H -2.9439177074 0.5563941148 -0.9893646306
| 19> H -0.9431695601 -0.8568378466 0.8314352576
| 20> H -1.2551715248 0.88281746 0.8112265413
| 21> H -0.4975068466 0.994181406 -1.5611471235
| 22> H -0.1716292577 -0.763359048 -1.5240028446
| 23> H 3.7159484422 -0.0422272644 0.0023476525
| 24> H 3.3693833151 -1.6167530477 0.7910396069
| 25> H 2.9261270012 -0.0734493087 1.5918388452
| 26> *
| 27>
| 28>                          ****END OF INPUT****

CARTESIAN COORDINATES (ANGSTROEM)
---------------------------------
  C     -3.663838   -0.449910    0.769177
  C     -2.646928   -0.279284   -0.353176
  C     -1.246452   -0.021011    0.197717
  C     -0.219665    0.149434   -0.931671
  C      1.132299    0.418102   -0.330419
  O      1.604334    1.518611   -0.133554
  O      1.752181   -0.707628    0.004758
  C      3.028025   -0.597543    0.640912
  H     -3.393377   -1.290081    1.404315
  H     -3.705252    0.445408    1.385118
  H     -4.654051   -0.632149    0.360152
  H     -2.630659   -1.179807   -0.969527
  H     -2.943918    0.556394   -0.989365
  H     -0.943170   -0.856838    0.831435
  H     -1.255172    0.882817    0.811227
  H     -0.497507    0.994181   -1.561147
  H     -0.171629   -0.763359   -1.524003
  H      3.715948   -0.042227    0.002348
  H      3.369383   -1.616753    0.791040
  H      2.926127   -0.073449    1.591839

 Total Charge           Charge          ....    0
 Multiplicity           Mult            ....    1
 Number of Electrons    NEL             ....   64
 Basis Dimension        Dim             ....  222

ORBITAL ENERGIES
----------------

  NO   OCC          E(Eh)            E(eV)
   0   2.0000     -18.998553      -516.9769
   1   2.0000     -18.927599      -515.0462
   2   2.0000     -10.150854      -276.2188
   3   2.0000     -10.086481      -274.4671
   4   2.0000     -10.041335      -273.2386
   5   2.0000     -10.037287      -273.1285
   6   2.0000     -10.031582      -272.9732
   7   2.0000     -10.020297      -272.6661
   8   2.0000      -1.072686       -29.1893
   9   2.0000      -0.974499       -26.5175
  10   2.0000      -0.780743       -21.2451
  11   2.0000      -0.729736       -19.8571
  12   2.0000      -0.685587       -18.6558
  13   2.0000      -0.617815       -16.8116
  14   2.0000      -0.555778       -15.1235
  15   2.0000      -0.534158       -14.5352
  16   2.0000      -0.466021       -12.6811
  17   2.0000      -0.456978       -12.4350
  18   2.0000      -0.451576       -12.2880
  19   2.0000      -0.432714       -11.7747
  20   2.0000      -0.406659       -11.0658
  21   2.0000      -0.390400       -10.6233
  22   2.0000      -0.386485       -10.5168
  23   2.0000      -0.366812        -9.9815
  24   2.0000      -0.348393        -9.4802
  25   2.0000      -0.331913        -9.0318
  26   2.0000      -0.324158        -8.8208
  27   2.0000      -0.311653        -8.4805
  28   2.0000      -0.303558        -8.2602
  29   2.0000      -0.302703        -8.2370
  30   2.0000      -0.272870        -7.4252
  31   2.0000      -0.232926        -6.3382
  32   0.0000      -0.014586        -0.3969
  33   0.0000       0.065132         1.7723
  34   0.0000       0.092602         2.5198
  35   0.0000       0.100270         2.7285
  36   0.0000       0.120225         3.2715

MULLIKEN ATOMIC CHARGES
-----------------------
   0 C :   -0.464565
   1 C :   -0.238679
   2 C :   -0.281988
   3 C :   -0.321085
   4 C :    0.404192
   5 O :   -0.421292
   6 O :   -0.192297
   7 C :   -0.292827
   8 H :    0.143128
   9 H :    0.144218
  10 H :    0.148701
  11 H :    0.138212
  12 H :    0.139428
  13 H :    0.149572
  14 H :    0.154256
  15 H :    0.162231
  16 H :    0.156354
  17 H :    0.163025
  18 H :    0.149863
  19 H :    0.159554
Sum of atomic charges:   -0.0000000

LOEWDIN ATOMIC CHARGES
----------------------
   0 C :   -0.422445
   1 C :   -0.312821
   2 C :   -0.281171
   3 C :   -0.227119
   4 C :    0.350305
   5 O :   -0.422637
   6 O :   -0.604921
   7 C :   -0.044532
   8 H :    0.150275
   9 H :    0.151014
  10 H :    0.151317
  11 H :    0.151830
  12 H :    0.152629
  13 H :    0.161378
  14 H :    0.162891
  15 H :    0.177774
  16 H :    0.177019
  17 H :    0.177648
  18 H :    0.175811
  19 H :    0.175755

  Mayer bond orders larger than 0.100000
B(  0-C ,  1-C ) :   0.9019 B(  0-C ,  8-H ) :   0.9840 B(  0-C ,  9-H ) :   0.9820
B(  0-C , 10-H ) :   0.9749 B(  1-C ,  2-C ) :   0.9258 B(  1-C , 11-H ) :   0.9767
B(  1-C , 12-H ) :   0.9707 B(  2-C ,  3-C ) :   0.9314 B(  2-C , 13-H ) :   0.9689
B(  2-C , 14-H ) :   0.9608 B(  3-C ,  4-C ) :   0.9611 B(  3-C , 15-H ) :   0.9725
B(  3-C , 16-H ) :   0.9793 B(  4-C ,  5-O ) :   1.8297 B(  4-C ,  6-O ) :   1.0371
B(  6-O ,  7-C ) :   0.8524 B(  7-C , 17-H ) :   0.9639 B(  7-C , 18-H ) :   0.9693
B(  7-C , 19-H ) :   0.9613

Dispersion correction           -0.004922424
FINAL SINGLE POINT ENERGY      -386.230801160784

DIPOLE MOMENT
-------------

Method             : SCF
Type of density    : Electron Density
Multiplicity       :   1
Irrep              :   0
Energy             :  -386.2377226542639050 Eh
Relativity type    :
Basis              : AO
                                X                 Y                 Z
Electronic contribution:      9.310618331       2.529382403      -1.928518000
Nuclear contribution   :     -9.503838428      -3.342729548       1.999604313
                        -----------------------------------------
Total Dipole Moment    :     -0.193220097      -0.813347145       0.071086312
                        -----------------------------------------
Magnitude (a.u.)       :      0.838999910
Magnitude (Debye)      :      2.132568292

Rotational constants in cm-1:             0.162251             0.027424             0.025781
Rotational constants in MHz :          4864.167648           822.152332           772.887563

                             ****ORCA TERMINATED NORMALLY****
TOTAL RUN TIME: 0 days 0 hours 0 minutes 25 seconds 400 msec
