                         Program Version 6.0.0  -   RELEASE  -
|  1> ! r2scan-3c def2/J RI DEFGRID2 scfconv6 printgap
|  2> %output
|  3>     printlevel normal
|  4> end
|  5> %cpcm
|  6>     smd true
|  7>     smdsolvent "water"
|  8> end
|  9> * xyz 0 1
| 10> C -3.6638383248 -0.4499102832 0.7691770883
| 11> C -2.6469283609 -0.2792835706 -0.3531760687
| 12> C -1.2464520958 -0.0210111506 0.1977165684
| 13> C -0.2196654375 0.149434236 -0.9316712544
| 14> C 1.1322993745 0.4181021832 -0.3304190675
| 15> O 1.6043335473 1.5186105684 -0.1335542929
| 16> O 1.752181327 -0.7076281888 0.0047576525
| 17> C 3.0280249151 -0.5975428769 0.640911543
| 18> H -3.3933771749 -1.2900813037 1.4043151538
| 19> H -3.7052515952 0.4454083474 1.3851175757
| 20> H -4.6540513787 -0.6321491806 0.3601517646
| 21> H -2.6306586076 -1.179806629 -0.9695265728
| 22> H -2.9439177074 0.5563941148 -0.9893646306
| 23> H -0.9431695601 -0.8568378466 0.8314352576
| 24> H -1.2551715248 0.88281746 0.8112265413
| 25> H -0.4975068466 0.994181406 -1.5611471235
| 26> H -0.1716292577 -0.763359048 -1.5240028446
| 27> H 3.7159484422 -0.0422272644 0.0023476525
| 28> H 3.3693833151 -1.6167530477 0.7910396069
| 29> H 2.9261270012 -0.0734493087 1.5918388452
| 30> *
| 31>
| 32>                          ****END OF INPUT****

CARTESIAN COORDINATES (ANGSTROEM)
---------------------------------
  C     -3.663838   -0.449910    0.769177
  C     -2.646928   -0.279284   -0.353176
  C     -1.246452   -0.021011    0.197717
  C     -0.219665    0.149434   -0.931671
  C      1.132299    0.418102   -0.330419
  O      1.604334    1.518611   -0.133554
  O      1.752181   -0.707628    0.004758
  C      3.028025   -0.597543    0.640912
  H     -3.393377   -1.290081    1.404315
  H     -3.705252    0.445408    1.385118
  H     -4.654051   -0.632149    0.360152
  H     -2.630659   -1.179807   -0.969527
  H     -2.943918    0.556394   -0.989365
  H     -0.943170   -0.856838    0.831435
  H     -1.255172    0.882817    0.811227
  H     -0.497507    0.994181   -1.561147
  H     -0.171629   -0.763359   -1.524003
  H      3.715948   -0.042227    0.002348
  H      3.369383   -1.616753    0.791040
  H      2.926127   -0.073449    1.591839

 Total Charge           Charge          ....    0
 Multiplicity           Mult            ....    1
 Number of Electrons    NEL             ....   64
 Basis Dimension        Dim             ....  222

ORBITAL ENERGIES
----------------

  NO   OCC          E(Eh)            E(eV)
   0   2.0000     -19.004340      -517.1344
   1   2.0000     -18.944110      -515.4954
   2   2.0000     -10.161714      -276.5143
   3   2.0000     -10.076591      -274.1980
   4   2.0000     -10.035377      -273.0765
   5   2.0000     -10.028014      -272.8761
   6   2.0000     -10.019602      -272.6472
   7   2.0000     -10.008902      -272.3561
   8   2.0000      -1.080095       -29.3909
   9   2.0000      -0.988845       -26.9078
  10   2.0000      -0.773045       -21.0356
  11   2.0000      -0.723454       -19.6862
  12   2.0000      -0.678605       -18.4658
  13   2.0000      -0.609816       -16.5939
  14   2.0000      -0.545450       -14.8425
  15   2.0000      -0.532722       -14.4961
  16   2.0000      -0.467391       -12.7184
  17   2.0000      -0.458616       -12.4796
  18   2.0000      -0.451453       -12.2847
  19   2.0000      -0.433615       -11.7993
  20   2.0000      -0.398054       -10.8316
  21   2.0000      -0.389185       -10.5903
  22   2.0000      -0.377729       -10.2785
  23   2.0000      -0.363908        -9.9024
  24   2.0000      -0.343303        -9.3417
  25   2.0000      -0.325844        -8.8667
  26   2.0000      -0.322271        -8.7694
  27   2.0000      -0.301654        -8.2084
  28   2.0000      -0.298367        -8.1190
  29   2.0000      -0.292521        -7.9599
  30   2.0000      -0.279517        -7.6061
  31   2.0000      -0.249192        -6.7808
  32   0.0000      -0.023187        -0.6309
  33   0.0000       0.069713         1.8970
  34   0.0000       0.101490         2.7617
  35   0.0000       0.110920         3.0183
  36   0.0000       0.129996         3.5374

MULLIKEN ATOMIC CHARGES
-----------------------
   0 C :   -0.509051
   1 C :   -0.252633
   2 C :   -0.271676
   3 C :   -0.352269
   4 C :    0.448904
   5 O :   -0.508474
   6 O :   -0.206498
   7 C :   -0.327971
   8 H :    0.155317
   9 H :    0.154867
  10 H :    0.158746
  11 H :    0.151030
  12 H :    0.150762
  13 H :    0.159514
  14 H :    0.159626
  15 H :    0.176901
  16 H :    0.178434
  17 H :    0.177958
  18 H :    0.178414
  19 H :    0.178101
Sum of atomic charges:   -0.0000000

LOEWDIN ATOMIC CHARGES
----------------------
   0 C :   -0.430792
   1 C :   -0.312169
   2 C :   -0.279345
   3 C :   -0.225586
   4 C :    0.359871
   5 O :   -0.485552
   6 O :   -0.606091
   7 C :   -0.042149
   8 H :    0.153010
   9 H :    0.153076
  10 H :    0.153681
  11 H :    0.155669
  12 H :    0.155691
  13 H :    0.164571
  14 H :    0.164065
  15 H :    0.182882
  16 H :    0.186472
  17 H :    0.182531
  18 H :    0.188304
  19 H :    0.181861

  Mayer bond orders larger than 0.100000
B(  0-C ,  1-C ) :   0.8902 B(  0-C ,  8-H ) :   0.9818 B(  0-C ,  9-H ) :   0.9803
B(  0-C , 10-H ) :   0.9722 B(  1-C ,  2-C ) :   0.9201 B(  1-C , 11-H ) :   0.9763
B(  1-C , 12-H ) :   0.9715 B(  2-C ,  3-C ) :   0.9197 B(  2-C , 13-H ) :   0.9650
B(  2-C , 14-H ) :   0.9598 B(  3-C ,  4-C ) :   0.9579 B(  3-C , 15-H ) :   0.9732
B(  3-C , 16-H ) :   0.9680 B(  4-C ,  5-O ) :   1.7612 B(  4-C ,  6-O ) :   1.0641
B(  6-O ,  7-C ) :   0.8324 B(  7-C , 17-H ) :   0.9584 B(  7-C , 18-H ) :   0.9592
B(  7-C , 19-H ) :   0.9558

Dispersion correction           -0.004922424
FINAL SINGLE POINT ENERGY      -386.235902832806

DIPOLE MOMENT
-------------

Method             : SCF
Type of density    : Electron Density
Multiplicity       :   1
Irrep              :   0
Energy             :  -386.2428243262861542 Eh
Relativity type    :
Basis              : AO
                                X                 Y                 Z
Electronic contribution:      9.243862074       2.195810229      -1.943538358
Nuclear contribution   :     -9.503838428      -3.342729548       1.999604313
                        -----------------------------------------
Total Dipole Moment    :     -0.259976354      -1.146919319       0.056065954
                        -----------------------------------------
Magnitude (a.u.)       :      1.177350848
Magnitude (Debye)      :      2.992588031

Rotational constants in cm-1:             0.162251             0.027424             0.025781
Rotational constants in MHz :          4864.167648           822.152332           772.887563

                             ****ORCA TERMINATED NORMALLY****
TOTAL RUN TIME: 0 days 0 hours 0 minutes 33 seconds 262 msec
