                         Program Version 6.0.0  -   RELEASE  -
|  1> ! pbe def2-sv(p) def2/J RI DEFGRID1 loosescf d4 GCP(DFT/SV(P)) printgap
|  2> %output
|  3>     printlevel normal
|  4> end
|  5> * xyz 0 1
|  6> C -4.4695362473 -1.2470250727 -0.2242204135
|  7> C -3.6425631979 -2.3616247178 -0.2473926326
|  8> C -2.2706750387 -2.2075084987 -0.1723116467
|  9> C -1.7006187331 -0.9400980081 -0.0738884791
| 10> C -2.5357039592 0.1824735004 -0.0511688507
| 11> C -3.9176614039 0.0161020151 -0.1263558691
| 12> C -1.9739591004 1.5351790197 0.0505913458
| 13> O -2.6962101982 2.5300118807 0.0806011366
| 14> C -0.5059937756 1.6429453609 0.113101394
| 15> C 0.0249847668 2.9191106366 0.1943211583
| 16> C 1.40346233 3.1065829873 0.2533334607
| 17> C 2.2455835637 2.027605026 0.2346606332
| 18> C 1.7482148083 0.7025383189 0.1585862024
| 19> C 0.3345454783 0.505359848 0.0922748039
| 20> C -0.2297069317 -0.8245692016 0.0041934726
| 21> O 0.4559726585 -1.8605433095 -0.0098533783
| 22> N 2.590821001 -0.3339643143 0.1521835808
| 23> C 4.0300816361 -0.2596716427 0.204770475
| 24> C 4.6026332805 -1.6759841436 0.3108499483
| 25> O 4.2282562812 -2.5012293658 -0.7668438981
| 26> H -5.5401588609 -1.3644134799 -0.282355335
| 27> H -4.0682404532 -3.3498543597 -0.3238894237
| 28> H -1.6097919351 -3.0615957163 -0.1884244089
| 29> H -4.5365258952 0.9010136723 -0.105995441
| 30> H -0.6553863489 3.7566219006 0.2082309361
| 31> H 1.8043716788 4.1062433295 0.3120697576
| 32> H 3.3103296666 2.1825626007 0.276526426
| 33> H 2.1794536988 -1.2596350696 0.049129322
| 34> H 4.3534761347 0.311719337 1.0803907383
| 35> H 4.4175814352 0.2294430445 -0.6978898715
| 36> H 4.2066720477 -2.1677967813 1.202052751
| 37> H 5.6945934645 -1.6182757896 0.3974538001
| 38> H 4.5942521763 -2.145057476 -1.5885196167
| 39> *
| 40>
| 41>                          ****END OF INPUT****

CARTESIAN COORDINATES (ANGSTROEM)
---------------------------------
  C     -4.469536   -1.247025   -0.224220
  C     -3.642563   -2.361625   -0.247393
  C     -2.270675   -2.207508   -0.172312
  C     -1.700619   -0.940098   -0.073888
  C     -2.535704    0.182474   -0.051169
  C     -3.917661    0.016102   -0.126356
  C     -1.973959    1.535179    0.050591
  O     -2.696210    2.530012    0.080601
  C     -0.505994    1.642945    0.113101
  C      0.024985    2.919111    0.194321
  C      1.403462    3.106583    0.253333
  C      2.245584    2.027605    0.234661
  C      1.748215    0.702538    0.158586
  C      0.334545    0.505360    0.092275
  C     -0.229707   -0.824569    0.004193
  O      0.455973   -1.860543   -0.009853
  N      2.590821   -0.333964    0.152184
  C      4.030082   -0.259672    0.204770
  C      4.602633   -1.675984    0.310850
  O      4.228256   -2.501229   -0.766844
  H     -5.540159   -1.364413   -0.282355
  H     -4.068240   -3.349854   -0.323889
  H     -1.609792   -3.061596   -0.188424
  H     -4.536526    0.901014   -0.105995
  H     -0.655386    3.756622    0.208231
  H      1.804372    4.106243    0.312070
  H      3.310330    2.182563    0.276526
  H      2.179454   -1.259635    0.049129
  H      4.353476    0.311719    1.080391
  H      4.417581    0.229443   -0.697890
  H      4.206672   -2.167797    1.202053
  H      5.694593   -1.618276    0.397454
  H      4.594252   -2.145057   -1.588520

 Total Charge           Charge          ....    0
 Multiplicity           Mult            ....    1
 Number of Electrons    NEL             ....  140
 Basis Dimension        Dim             ....  306

ORBITAL ENERGIES
----------------

  NO   OCC          E(Eh)            E(eV)
   0   2.0000     -18.761967      -510.5391
   1   2.0000     -18.743776      -510.0441
   2   2.0000     -18.739994      -509.9412
   3   2.0000     -14.015462      -381.3801
   4   2.0000      -9.973398      -271.3900
   5   2.0000      -9.971639      -271.3421
   6   2.0000      -9.955721      -270.9089
   7   2.0000      -9.951672      -270.7988
   8   2.0000      -9.940417      -270.4925
   9   2.0000      -9.910176      -269.6696
  10   2.0000      -9.909378      -269.6479
  11   2.0000      -9.908755      -269.6309
  12   2.0000      -9.908338      -269.6196
  13   2.0000      -9.907238      -269.5896
  14   2.0000      -9.905935      -269.5542
  15   2.0000      -9.905278      -269.5363
  16   2.0000      -9.904297      -269.5096
  17   2.0000      -9.902176      -269.4519
  18   2.0000      -9.900891      -269.4169
  19   2.0000      -9.892449      -269.1872
  20   2.0000      -0.940747       -25.5990
  21   2.0000      -0.936046       -25.4711
  22   2.0000      -0.932285       -25.3688
  23   2.0000      -0.870343       -23.6832
  24   2.0000      -0.793935       -21.6041
  25   2.0000      -0.779294       -21.2057
  26   2.0000      -0.722354       -19.6563
  27   2.0000      -0.705121       -19.1873
  28   2.0000      -0.684950       -18.6384
  29   2.0000      -0.681134       -18.5346
  30   2.0000      -0.653667       -17.7872
  31   2.0000      -0.606475       -16.5030
  32   2.0000      -0.596513       -16.2319
  33   2.0000      -0.582508       -15.8508
  34   2.0000      -0.566007       -15.4018
  35   2.0000      -0.539184       -14.6720
  36   2.0000      -0.520644       -14.1674
  37   2.0000      -0.497785       -13.5454
  38   2.0000      -0.492850       -13.4111
  39   2.0000      -0.470568       -12.8048
  40   2.0000      -0.456460       -12.4209
  41   2.0000      -0.445258       -12.1161
  42   2.0000      -0.432479       -11.7684
  43   2.0000      -0.430410       -11.7121
  44   2.0000      -0.420545       -11.4436
  45   2.0000      -0.415628       -11.3098
  46   2.0000      -0.402477       -10.9520
  47   2.0000      -0.397628       -10.8200
  48   2.0000      -0.385334       -10.4855
  49   2.0000      -0.382508       -10.4086
  50   2.0000      -0.379030       -10.3139
  51   2.0000      -0.374109       -10.1800
  52   2.0000      -0.368197       -10.0191
  53   2.0000      -0.362688        -9.8692
  54   2.0000      -0.354196        -9.6382
  55   2.0000      -0.344279        -9.3683
  56   2.0000      -0.337422        -9.1817
  57   2.0000      -0.328454        -8.9377
  58   2.0000      -0.318430        -8.6649
  59   2.0000      -0.314231        -8.5507
  60   2.0000      -0.305421        -8.3109
  61   2.0000      -0.292693        -7.9646
  62   2.0000      -0.279467        -7.6047
  63   2.0000      -0.246313        -6.7025
  64   2.0000      -0.239561        -6.5188
  65   2.0000      -0.237866        -6.4727
  66   2.0000      -0.237139        -6.4529
  67   2.0000      -0.213557        -5.8112
  68   2.0000      -0.202228        -5.5029
  69   2.0000      -0.186682        -5.0799
  70   0.0000      -0.123060        -3.3486
  71   0.0000      -0.075471        -2.0537
  72   0.0000      -0.048810        -1.3282
  73   0.0000      -0.028325        -0.7708
  74   0.0000       0.011624         0.3163

MULLIKEN ATOMIC CHARGES
-----------------------
   0 C :   -0.021511
   1 C :   -0.017134
   2 C :   -0.133807
   3 C :    0.048028
   4 C :    0.038235
   5 C :   -0.126216
   6 C :    0.084954
   7 O :   -0.151778
   8 C :    0.021358
   9 C :   -0.141052
  10 C :   -0.004192
  11 C :   -0.165616
  12 C :    0.076723
  13 C :    0.049053
  14 C :    0.070084
  15 O :   -0.207338
  16 N :   -0.249321
  17 C :   -0.088316
  18 C :    0.005684
  19 O :   -0.429082
  20 H :    0.061626
  21 H :    0.061621
  22 H :    0.060534
  23 H :    0.057376
  24 H :    0.054345
  25 H :    0.058067
  26 H :    0.039498
  27 H :    0.254170
  28 H :    0.105919
  29 H :    0.090755
  30 H :    0.107245
  31 H :    0.090502
  32 H :    0.299588
Sum of atomic charges:    0.0000000

LOEWDIN ATOMIC CHARGES
----------------------
   0 C :   -0.108691
   1 C :   -0.105355
   2 C :   -0.088440
   3 C :   -0.044584
   4 C :   -0.054057
   5 C :   -0.083637
   6 C :    0.058861
   7 O :   -0.132237
   8 C :   -0.044970
   9 C :   -0.113055
  10 C :   -0.097139
  11 C :   -0.150012
  12 C :    0.033651
  13 C :   -0.089310
  14 C :    0.055222
  15 O :   -0.168937
  16 N :   -0.133237
  17 C :   -0.179527
  18 C :   -0.127522
  19 O :   -0.330486
  20 H :    0.128267
  21 H :    0.128294
  22 H :    0.135723
  23 H :    0.135391
  24 H :    0.134397
  25 H :    0.128910
  26 H :    0.127145
  27 H :    0.241064
  28 H :    0.121589
  29 H :    0.109617
  30 H :    0.122128
  31 H :    0.104426
  32 H :    0.286510

  Mayer bond orders larger than 0.100000
B(  0-C ,  1-C ) :   1.3272 B(  0-C ,  5-C ) :   1.3370 B(  0-C , 20-H ) :   0.9668
B(  1-C ,  2-C ) :   1.3350 B(  1-C , 21-H ) :   0.9666 B(  2-C ,  3-C ) :   1.3830
B(  2-C , 22-H ) :   0.9541 B(  3-C ,  4-C ) :   1.3356 B(  3-C , 14-C ) :   0.9734
B(  4-C ,  5-C ) :   1.3782 B(  4-C ,  6-C ) :   0.9564 B(  5-C , 23-H ) :   0.9568
B(  6-C ,  7-O ) :   2.1548 B(  6-C ,  8-C ) :   0.9494 B(  8-C ,  9-C ) :   1.4238
B(  8-C , 13-C ) :   1.3067 B(  9-C , 10-C ) :   1.2363 B(  9-C , 24-H ) :   0.9561
B( 10-C , 11-C ) :   1.3779 B( 10-C , 25-H ) :   0.9661 B( 11-C , 12-C ) :   1.2388
B( 11-C , 26-H ) :   0.9554 B( 12-C , 13-C ) :   1.2125 B( 12-C , 16-N ) :   1.4086
B( 13-C , 14-C ) :   1.0196 B( 14-C , 15-O ) :   1.9841 B( 15-O , 27-H ) :   0.1343
B( 16-N , 17-C ) :   1.0061 B( 16-N , 27-H ) :   0.7550 B( 17-C , 18-C ) :   1.0938
B( 17-C , 28-H ) :   0.9032 B( 17-C , 29-H ) :   0.9084 B( 18-C , 19-O ) :   1.0559
B( 18-C , 30-H ) :   0.9230 B( 18-C , 31-H ) :   0.9237 B( 19-O , 32-H ) :   0.8510

Dispersion correction           -0.046262266
FINAL SINGLE POINT ENERGY      -896.123236551049

DIPOLE MOMENT
-------------

Method             : SCF
Type of density    : Electron Density
Multiplicity       :   1
Irrep              :   0
Energy             :  -896.2206514079057342 Eh
Relativity type    :
Basis              : AO
                                X                 Y                 Z
Electronic contribution:    -11.834278135       3.181681827      -0.470979103
Nuclear contribution   :     13.319388492      -3.292881530       0.308361911
                        -----------------------------------------
Total Dipole Moment    :      1.485110358      -0.111199702      -0.162617192
                        -----------------------------------------
Magnitude (a.u.)       :      1.498119655
Magnitude (Debye)      :      3.807917542

Rotational constants in cm-1:             0.019056             0.008023             0.005703
Rotational constants in MHz :           571.281820           240.513843           170.974891

                             ****ORCA TERMINATED NORMALLY****
TOTAL RUN TIME: 0 days 0 hours 0 minutes 33 seconds 890 msec
