                         Program Version 6.0.0  -   RELEASE  -
|  1> ! r2scan-3c def2/J RI DEFGRID2 scfconv6 printgap
|  2> %output
|  3>     printlevel normal
|  4> end
|  5> * xyz 0 1
|  6> C -4.5498264857 -1.0914764165 -0.3639351597
|  7> C -3.8127990199 -2.2567994069 -0.203771833
|  8> C -2.4445043032 -2.1907963695 -0.0179002855
|  9> C -1.7879524718 -0.9620017775 0.0115445243
| 10> C -2.532761349 0.2114402911 -0.1500358059
| 11> C -3.9118414464 0.1340766186 -0.3369034569
| 12> C -1.8770614314 1.5242415328 -0.1262297472
| 13> O -2.5169190068 2.5647135309 -0.2674057376
| 14> C -0.4173750024 1.5358098355 0.0756650247
| 15> C 0.1987948503 2.7745594006 0.0902528865
| 16> C 1.5757527425 2.8734584164 0.2731762123
| 17> C 2.3298528083 1.7455267301 0.4489957917
| 18> C 1.7466562249 0.4542741891 0.4484787798
| 19> C 0.332398863 0.3472623706 0.2473559844
| 20> C -0.3258168574 -0.9404588147 0.2130507258
| 21> O 0.2754140718 -2.0235799869 0.3387593089
| 22> N 2.4796650123 -0.649618011 0.6365874231
| 23> C 3.9006169318 -0.7869063555 0.8246383784
| 24> C 4.5218678355 -1.6401647445 -0.2938371664
| 25> O 4.5836744831 -0.9626781216 -1.5283677362
| 26> H -5.6174537372 -1.1402746381 -0.5092246474
| 27> H -4.3059981703 -3.2159358309 -0.2242360732
| 28> H -1.8544290471 -3.0863916151 0.1085661499
| 29> H -4.4592391775 1.057050507 -0.4588143182
| 30> H -0.4129695503 3.6530399237 -0.0452185951
| 31> H 2.0461188664 3.8440489195 0.2772132902
| 32> H 3.3930244798 1.8458109627 0.5869652895
| 33> H 1.949280079 -1.5212683003 0.6208790943
| 34> H 4.0843142099 -1.2879942991 1.7793940662
| 35> H 4.3927455755 0.183389424 0.8360428353
| 36> H 3.9634709289 -2.5789625549 -0.3955030315
| 37> H 5.5569191605 -1.8709404941 -0.0360730303
| 38> H 3.6864208834 -0.8028276721 -1.8496654649
| 39> *
| 40>
| 41>                          ****END OF INPUT****

CARTESIAN COORDINATES (ANGSTROEM)
---------------------------------
  C     -4.549826   -1.091476   -0.363935
  C     -3.812799   -2.256799   -0.203772
  C     -2.444504   -2.190796   -0.017900
  C     -1.787952   -0.962002    0.011545
  C     -2.532761    0.211440   -0.150036
  C     -3.911841    0.134077   -0.336903
  C     -1.877061    1.524242   -0.126230
  O     -2.516919    2.564714   -0.267406
  C     -0.417375    1.535810    0.075665
  C      0.198795    2.774559    0.090253
  C      1.575753    2.873458    0.273176
  C      2.329853    1.745527    0.448996
  C      1.746656    0.454274    0.448479
  C      0.332399    0.347262    0.247356
  C     -0.325817   -0.940459    0.213051
  O      0.275414   -2.023580    0.338759
  N      2.479665   -0.649618    0.636587
  C      3.900617   -0.786906    0.824638
  C      4.521868   -1.640165   -0.293837
  O      4.583674   -0.962678   -1.528368
  H     -5.617454   -1.140275   -0.509225
  H     -4.305998   -3.215936   -0.224236
  H     -1.854429   -3.086392    0.108566
  H     -4.459239    1.057051   -0.458814
  H     -0.412970    3.653040   -0.045219
  H      2.046119    3.844049    0.277213
  H      3.393024    1.845811    0.586965
  H      1.949280   -1.521268    0.620879
  H      4.084314   -1.287994    1.779394
  H      4.392746    0.183389    0.836043
  H      3.963471   -2.578963   -0.395503
  H      5.556919   -1.870940   -0.036073
  H      3.686421   -0.802828   -1.849665

 Total Charge           Charge          ....    0
 Multiplicity           Mult            ....    1
 Number of Electrons    NEL             ....  140
 Basis Dimension        Dim             ....  465

ORBITAL ENERGIES
----------------

  NO   OCC          E(Eh)            E(eV)
   0   2.0000     -18.961654      -515.9728
   1   2.0000     -18.944509      -515.5063
   2   2.0000     -18.938646      -515.3468
   3   2.0000     -14.194483      -386.2515
   4   2.0000     -10.126720      -275.5621
   5   2.0000     -10.122957      -275.4597
   6   2.0000     -10.108931      -275.0780
   7   2.0000     -10.093935      -274.6699
   8   2.0000     -10.084925      -274.4248
   9   2.0000     -10.060787      -273.7679
  10   2.0000     -10.060445      -273.7586
  11   2.0000     -10.059345      -273.7287
  12   2.0000     -10.058247      -273.6988
  13   2.0000     -10.056965      -273.6639
  14   2.0000     -10.055220      -273.6164
  15   2.0000     -10.054231      -273.5895
  16   2.0000     -10.053002      -273.5561
  17   2.0000     -10.051587      -273.5176
  18   2.0000     -10.051019      -273.5021
  19   2.0000     -10.042241      -273.2633
  20   2.0000      -1.008972       -27.4555
  21   2.0000      -1.002981       -27.2925
  22   2.0000      -0.999982       -27.2109
  23   2.0000      -0.932512       -25.3749
  24   2.0000      -0.852321       -23.1928
  25   2.0000      -0.836282       -22.7564
  26   2.0000      -0.776282       -21.1237
  27   2.0000      -0.753249       -20.4969
  28   2.0000      -0.738558       -20.0972
  29   2.0000      -0.733910       -19.9707
  30   2.0000      -0.700965       -19.0742
  31   2.0000      -0.653129       -17.7725
  32   2.0000      -0.635681       -17.2978
  33   2.0000      -0.618910       -16.8414
  34   2.0000      -0.604747       -16.4560
  35   2.0000      -0.573488       -15.6054
  36   2.0000      -0.555694       -15.1212
  37   2.0000      -0.523907       -14.2562
  38   2.0000      -0.520738       -14.1700
  39   2.0000      -0.500757       -13.6263
  40   2.0000      -0.481250       -13.0955
  41   2.0000      -0.469409       -12.7733
  42   2.0000      -0.462616       -12.5884
  43   2.0000      -0.452261       -12.3067
  44   2.0000      -0.445943       -12.1347
  45   2.0000      -0.440235       -11.9794
  46   2.0000      -0.429542       -11.6884
  47   2.0000      -0.418117       -11.3775
  48   2.0000      -0.408800       -11.1240
  49   2.0000      -0.405257       -11.0276
  50   2.0000      -0.401486       -10.9250
  51   2.0000      -0.393851       -10.7172
  52   2.0000      -0.385342       -10.4857
  53   2.0000      -0.376252       -10.2383
  54   2.0000      -0.371588       -10.1114
  55   2.0000      -0.368464       -10.0264
  56   2.0000      -0.354448        -9.6450
  57   2.0000      -0.348047        -9.4708
  58   2.0000      -0.339247        -9.2314
  59   2.0000      -0.333174        -9.0661
  60   2.0000      -0.324746        -8.8368
  61   2.0000      -0.317910        -8.6508
  62   2.0000      -0.298171        -8.1137
  63   2.0000      -0.262817        -7.1516
  64   2.0000      -0.254916        -6.9366
  65   2.0000      -0.253522        -6.8987
  66   2.0000      -0.251488        -6.8433
  67   2.0000      -0.236366        -6.4319
  68   2.0000      -0.223631        -6.0853
  69   2.0000      -0.198297        -5.3959
  70   0.0000      -0.130928        -3.5627
  71   0.0000      -0.080680        -2.1954
  72   0.0000      -0.051928        -1.4130
  73   0.0000      -0.030025        -0.8170
  74   0.0000       0.020947         0.5700

MULLIKEN ATOMIC CHARGES
-----------------------
   0 C :   -0.130744
   1 C :   -0.126840
   2 C :   -0.225198
   3 C :    0.186056
   4 C :    0.136858
   5 C :   -0.215084
   6 C :    0.034857
   7 O :   -0.353931
   8 C :    0.190844
   9 C :   -0.246444
  10 C :   -0.132698
  11 C :   -0.317491
  12 C :    0.272647
  13 C :   -0.114423
  14 C :    0.016609
  15 O :   -0.443097
  16 N :   -0.054870
  17 C :   -0.229293
  18 C :   -0.148192
  19 O :   -0.413461
  20 H :    0.149221
  21 H :    0.148870
  22 H :    0.182187
  23 H :    0.182020
  24 H :    0.185701
  25 H :    0.148076
  26 H :    0.135440
  27 H :    0.306454
  28 H :    0.150892
  29 H :    0.133760
  30 H :    0.134173
  31 H :    0.143761
  32 H :    0.313339
Sum of atomic charges:    0.0000000

LOEWDIN ATOMIC CHARGES
----------------------
   0 C :   -0.142814
   1 C :   -0.139894
   2 C :   -0.101974
   3 C :   -0.025808
   4 C :   -0.035643
   5 C :   -0.096578
   6 C :    0.269458
   7 O :   -0.479659
   8 C :   -0.023807
   9 C :   -0.123114
  10 C :   -0.126012
  11 C :   -0.137876
  12 C :    0.203087
  13 C :   -0.038486
  14 C :    0.269311
  15 O :   -0.544820
  16 N :   -0.681498
  17 C :   -0.020624
  18 C :    0.029249
  19 O :   -0.598926
  20 H :    0.170792
  21 H :    0.170650
  22 H :    0.192952
  23 H :    0.191975
  24 H :    0.194203
  25 H :    0.172536
  26 H :    0.173427
  27 H :    0.296924
  28 H :    0.183575
  29 H :    0.185856
  30 H :    0.163024
  31 H :    0.180040
  32 H :    0.270475

  Mayer bond orders larger than 0.100000
B(  0-C ,  1-C ) :   1.3213 B(  0-C ,  5-C ) :   1.3567 B(  0-C , 20-H ) :   0.9559
B(  1-C ,  2-C ) :   1.3502 B(  1-C , 21-H ) :   0.9557 B(  2-C ,  3-C ) :   1.3526
B(  2-C , 15-O ) :   0.1027 B(  2-C , 22-H ) :   0.9606 B(  3-C ,  4-C ) :   1.5219
B(  3-C ,  6-C ) :  -0.1000 B(  3-C , 14-C ) :   0.9282 B(  3-C , 15-O ) :  -0.2016
B(  4-C ,  5-C ) :   1.3497 B(  4-C ,  6-C ) :   0.8547 B(  4-C ,  7-O ) :  -0.2241
B(  5-C ,  7-O ) :   0.1084 B(  5-C , 23-H ) :   0.9636 B(  6-C ,  7-O ) :   2.0993
B(  6-C ,  8-C ) :   0.8625 B(  7-O ,  8-C ) :  -0.2168 B(  7-O ,  9-C ) :   0.1241
B(  8-C ,  9-C ) :   1.4073 B(  8-C , 13-C ) :   1.2772 B(  9-C , 10-C ) :   1.2448
B(  9-C , 24-H ) :   0.9658 B( 10-C , 11-C ) :   1.4077 B( 10-C , 25-H ) :   0.9662
B( 11-C , 12-C ) :   1.1133 B( 11-C , 26-H ) :   0.9556 B( 12-C , 13-C ) :   1.2607
B( 12-C , 14-C ) :  -0.1067 B( 12-C , 16-N ) :   1.2797 B( 13-C , 14-C ) :   0.9352
B( 13-C , 15-O ) :  -0.1271 B( 14-C , 15-O ) :   1.8776 B( 16-N , 17-C ) :   0.8623
B( 16-N , 27-H ) :   0.8271 B( 17-C , 18-C ) :   0.9424 B( 17-C , 28-H ) :   0.9510
B( 17-C , 29-H ) :   0.9499 B( 18-C , 19-O ) :   0.9571 B( 18-C , 30-H ) :   0.9694
B( 18-C , 31-H ) :   0.9769 B( 19-O , 32-H ) :   0.8855

Dispersion correction           -0.015669308
FINAL SINGLE POINT ENERGY      -897.784837266791

DIPOLE MOMENT
-------------

Method             : SCF
Type of density    : Electron Density
Multiplicity       :   1
Irrep              :   0
Energy             :  -897.7855552134251411 Eh
Relativity type    :
Basis              : AO
                                X                 Y                 Z
Electronic contribution:    -11.177485784       4.011316375      -0.189950000
Nuclear contribution   :     11.702464927      -4.626793825       0.629565799
                        -----------------------------------------
Total Dipole Moment    :      0.524979143      -0.615477450       0.439615800
                        -----------------------------------------
Magnitude (a.u.)       :      0.920694109
Magnitude (Debye)      :      2.340218445

Rotational constants in cm-1:             0.020586             0.007692             0.005887
Rotational constants in MHz :           617.165944           230.612023           176.485870

                             ****ORCA TERMINATED NORMALLY****
TOTAL RUN TIME: 0 days 0 hours 2 minutes 7 seconds 429 msec
