                         Program Version 6.0.0  -   RELEASE  -
|  1> ! r2scan-3c def2/J RI DEFGRID2 scfconv6 printgap
|  2> %output
|  3>     printlevel normal
|  4> end
|  5> %cpcm
|  6>     smd true
|  7>     smdsolvent "water"
|  8> end
|  9> * xyz 0 1
| 10> C -4.5498264857 -1.0914764165 -0.3639351597
| 11> C -3.8127990199 -2.2567994069 -0.203771833
| 12> C -2.4445043032 -2.1907963695 -0.0179002855
| 13> C -1.7879524718 -0.9620017775 0.0115445243
| 14> C -2.532761349 0.2114402911 -0.1500358059
| 15> C -3.9118414464 0.1340766186 -0.3369034569
| 16> C -1.8770614314 1.5242415328 -0.1262297472
| 17> O -2.5169190068 2.5647135309 -0.2674057376
| 18> C -0.4173750024 1.5358098355 0.0756650247
| 19> C 0.1987948503 2.7745594006 0.0902528865
| 20> C 1.5757527425 2.8734584164 0.2731762123
| 21> C 2.3298528083 1.7455267301 0.4489957917
| 22> C 1.7466562249 0.4542741891 0.4484787798
| 23> C 0.332398863 0.3472623706 0.2473559844
| 24> C -0.3258168574 -0.9404588147 0.2130507258
| 25> O 0.2754140718 -2.0235799869 0.3387593089
| 26> N 2.4796650123 -0.649618011 0.6365874231
| 27> C 3.9006169318 -0.7869063555 0.8246383784
| 28> C 4.5218678355 -1.6401647445 -0.2938371664
| 29> O 4.5836744831 -0.9626781216 -1.5283677362
| 30> H -5.6174537372 -1.1402746381 -0.5092246474
| 31> H -4.3059981703 -3.2159358309 -0.2242360732
| 32> H -1.8544290471 -3.0863916151 0.1085661499
| 33> H -4.4592391775 1.057050507 -0.4588143182
| 34> H -0.4129695503 3.6530399237 -0.0452185951
| 35> H 2.0461188664 3.8440489195 0.2772132902
| 36> H 3.3930244798 1.8458109627 0.5869652895
| 37> H 1.949280079 -1.5212683003 0.6208790943
| 38> H 4.0843142099 -1.2879942991 1.7793940662
| 39> H 4.3927455755 0.183389424 0.8360428353
| 40> H 3.9634709289 -2.5789625549 -0.3955030315
| 41> H 5.5569191605 -1.8709404941 -0.0360730303
| 42> H 3.6864208834 -0.8028276721 -1.8496654649
| 43> *
| 44>
| 45>                          ****END OF INPUT****

CARTESIAN COORDINATES (ANGSTROEM)
---------------------------------
  C     -4.549826   -1.091476   -0.363935
  C     -3.812799   -2.256799   -0.203772
  C     -2.444504   -2.190796   -0.017900
  C     -1.787952   -0.962002    0.011545
  C     -2.532761    0.211440   -0.150036
  C     -3.911841    0.134077   -0.336903
  C     -1.877061    1.524242   -0.126230
  O     -2.516919    2.564714   -0.267406
  C     -0.417375    1.535810    0.075665
  C      0.198795    2.774559    0.090253
  C      1.575753    2.873458    0.273176
  C      2.329853    1.745527    0.448996
  C      1.746656    0.454274    0.448479
  C      0.332399    0.347262    0.247356
  C     -0.325817   -0.940459    0.213051
  O      0.275414   -2.023580    0.338759
  N      2.479665   -0.649618    0.636587
  C      3.900617   -0.786906    0.824638
  C      4.521868   -1.640165   -0.293837
  O      4.583674   -0.962678   -1.528368
  H     -5.617454   -1.140275   -0.509225
  H     -4.305998   -3.215936   -0.224236
  H     -1.854429   -3.086392    0.108566
  H     -4.459239    1.057051   -0.458814
  H     -0.412970    3.653040   -0.045219
  H      2.046119    3.844049    0.277213
  H      3.393024    1.845811    0.586965
  H      1.949280   -1.521268    0.620879
  H      4.084314   -1.287994    1.779394
  H      4.392746    0.183389    0.836043
  H      3.963471   -2.578963   -0.395503
  H      5.556919   -1.870940   -0.036073
  H      3.686421   -0.802828   -1.849665

 Total Charge           Charge          ....    0
 Multiplicity           Mult            ....    1
 Number of Electrons    NEL             ....  140
 Basis Dimension        Dim             ....  465

ORBITAL ENERGIES
----------------

  NO   OCC          E(Eh)            E(eV)
   0   2.0000     -18.955669      -515.8100
   1   2.0000     -18.948547      -515.6162
   2   2.0000     -18.946073      -515.5489
   3   2.0000     -14.187121      -386.0512
   4   2.0000     -10.131429      -275.6902
   5   2.0000     -10.127163      -275.5741
   6   2.0000     -10.103452      -274.9289
   7   2.0000     -10.076799      -274.2036
   8   2.0000     -10.064914      -273.8802
   9   2.0000     -10.060091      -273.7490
  10   2.0000     -10.059835      -273.7420
  11   2.0000     -10.058074      -273.6941
  12   2.0000     -10.056297      -273.6457
  13   2.0000     -10.050036      -273.4754
  14   2.0000     -10.049844      -273.4702
  15   2.0000     -10.049622      -273.4641
  16   2.0000     -10.048164      -273.4244
  17   2.0000     -10.047913      -273.4176
  18   2.0000     -10.046343      -273.3749
  19   2.0000     -10.041736      -273.2495
  20   2.0000      -1.015643       -27.6370
  21   2.0000      -1.011116       -27.5139
  22   2.0000      -0.992965       -27.0200
  23   2.0000      -0.923643       -25.1336
  24   2.0000      -0.851139       -23.1607
  25   2.0000      -0.832920       -22.6649
  26   2.0000      -0.773120       -21.0377
  27   2.0000      -0.744048       -20.2466
  28   2.0000      -0.736954       -20.0535
  29   2.0000      -0.730315       -19.8729
  30   2.0000      -0.691880       -18.8270
  31   2.0000      -0.651572       -17.7302
  32   2.0000      -0.628899       -17.1132
  33   2.0000      -0.612498       -16.6669
  34   2.0000      -0.597190       -16.2504
  35   2.0000      -0.567165       -15.4334
  36   2.0000      -0.552502       -15.0344
  37   2.0000      -0.520373       -14.1601
  38   2.0000      -0.513995       -13.9865
  39   2.0000      -0.493647       -13.4328
  40   2.0000      -0.470375       -12.7996
  41   2.0000      -0.464182       -12.6310
  42   2.0000      -0.460379       -12.5276
  43   2.0000      -0.444462       -12.0944
  44   2.0000      -0.436792       -11.8857
  45   2.0000      -0.434060       -11.8114
  46   2.0000      -0.424449       -11.5499
  47   2.0000      -0.418832       -11.3970
  48   2.0000      -0.413639       -11.2557
  49   2.0000      -0.406306       -11.0562
  50   2.0000      -0.399164       -10.8618
  51   2.0000      -0.391236       -10.6461
  52   2.0000      -0.383113       -10.4250
  53   2.0000      -0.377123       -10.2620
  54   2.0000      -0.365465        -9.9448
  55   2.0000      -0.356943        -9.7129
  56   2.0000      -0.346224        -9.4212
  57   2.0000      -0.341625        -9.2961
  58   2.0000      -0.339143        -9.2286
  59   2.0000      -0.329040        -8.9536
  60   2.0000      -0.322404        -8.7731
  61   2.0000      -0.312860        -8.5133
  62   2.0000      -0.292727        -7.9655
  63   2.0000      -0.264605        -7.2003
  64   2.0000      -0.252051        -6.8587
  65   2.0000      -0.251009        -6.8303
  66   2.0000      -0.249719        -6.7952
  67   2.0000      -0.243927        -6.6376
  68   2.0000      -0.230629        -6.2757
  69   2.0000      -0.193527        -5.2661
  70   0.0000      -0.133454        -3.6315
  71   0.0000      -0.080023        -2.1775
  72   0.0000      -0.048942        -1.3318
  73   0.0000      -0.027410        -0.7459
  74   0.0000       0.023990         0.6528

MULLIKEN ATOMIC CHARGES
-----------------------
   0 C :   -0.169863
   1 C :   -0.158651
   2 C :   -0.240143
   3 C :    0.194678
   4 C :    0.137126
   5 C :   -0.228363
   6 C :    0.076575
   7 O :   -0.441504
   8 C :    0.183510
   9 C :   -0.253845
  10 C :   -0.179205
  11 C :   -0.323311
  12 C :    0.288134
  13 C :   -0.124232
  14 C :    0.036520
  15 O :   -0.505624
  16 N :   -0.059319
  17 C :   -0.256063
  18 C :   -0.151006
  19 O :   -0.493133
  20 H :    0.185211
  21 H :    0.185412
  22 H :    0.197376
  23 H :    0.195717
  24 H :    0.197373
  25 H :    0.184077
  26 H :    0.177311
  27 H :    0.337339
  28 H :    0.173422
  29 H :    0.165486
  30 H :    0.149728
  31 H :    0.161461
  32 H :    0.357805
Sum of atomic charges:    0.0000000

LOEWDIN ATOMIC CHARGES
----------------------
   0 C :   -0.139600
   1 C :   -0.132375
   2 C :   -0.108680
   3 C :   -0.027204
   4 C :   -0.042571
   5 C :   -0.102126
   6 C :    0.276104
   7 O :   -0.550294
   8 C :   -0.032391
   9 C :   -0.127039
  10 C :   -0.125437
  11 C :   -0.122288
  12 C :    0.205413
  13 C :   -0.042030
  14 C :    0.269487
  15 O :   -0.587380
  16 N :   -0.660881
  17 C :   -0.012688
  18 C :    0.031622
  19 O :   -0.635676
  20 H :    0.184226
  21 H :    0.184452
  22 H :    0.196762
  23 H :    0.194932
  24 H :    0.195904
  25 H :    0.186097
  26 H :    0.189603
  27 H :    0.299912
  28 H :    0.196101
  29 H :    0.195110
  30 H :    0.171199
  31 H :    0.186791
  32 H :    0.284942

  Mayer bond orders larger than 0.100000
B(  0-C ,  1-C ) :   1.3091 B(  0-C ,  5-C ) :   1.3541 B(  0-C , 20-H ) :   0.9604
B(  1-C ,  2-C ) :   1.3399 B(  1-C , 21-H ) :   0.9603 B(  2-C ,  3-C ) :   1.2977
B(  2-C , 15-O ) :   0.1003 B(  2-C , 22-H ) :   0.9727 B(  3-C ,  4-C ) :   1.5112
B(  3-C , 14-C ) :   0.9224 B(  3-C , 15-O ) :  -0.2007 B(  4-C ,  5-C ) :   1.2868
B(  4-C ,  6-C ) :   0.8642 B(  4-C ,  7-O ) :  -0.2250 B(  5-C ,  7-O ) :   0.1045
B(  5-C , 23-H ) :   0.9742 B(  6-C ,  7-O ) :   2.0610 B(  6-C ,  8-C ) :   0.8734
B(  7-O ,  8-C ) :  -0.2169 B(  7-O ,  9-C ) :   0.1228 B(  8-C ,  9-C ) :   1.3375
B(  8-C , 13-C ) :   1.2615 B(  9-C , 10-C ) :   1.2278 B(  9-C , 24-H ) :   0.9795
B( 10-C , 11-C ) :   1.4028 B( 10-C , 25-H ) :   0.9751 B( 11-C , 12-C ) :   1.0818
B( 11-C , 26-H ) :   0.9656 B( 12-C , 13-C ) :   1.2290 B( 12-C , 16-N ) :   1.3006
B( 13-C , 14-C ) :   0.9571 B( 13-C , 15-O ) :  -0.1294 B( 14-C , 15-O ) :   1.8545
B( 16-N , 17-C ) :   0.8560 B( 16-N , 27-H ) :   0.8257 B( 17-C , 18-C ) :   0.9392
B( 17-C , 28-H ) :   0.9408 B( 17-C , 29-H ) :   0.9532 B( 18-C , 19-O ) :   0.9421
B( 18-C , 30-H ) :   0.9638 B( 18-C , 31-H ) :   0.9698 B( 19-O , 32-H ) :   0.8623

Dispersion correction           -0.015669308
FINAL SINGLE POINT ENERGY      -897.804266107340

DIPOLE MOMENT
-------------

Method             : SCF
Type of density    : Electron Density
Multiplicity       :   1
Irrep              :   0
Energy             :  -897.8049840539734987 Eh
Relativity type    :
Basis              : AO
                                X                 Y                 Z
Electronic contribution:    -10.664184201       3.709439885       0.037033786
Nuclear contribution   :     11.702464927      -4.626793825       0.629565799
                        -----------------------------------------
Total Dipole Moment    :      1.038280726      -0.917353940       0.666599585
                        -----------------------------------------
Magnitude (a.u.)       :      1.537504512
Magnitude (Debye)      :      3.908025892

Rotational constants in cm-1:             0.020586             0.007692             0.005887
Rotational constants in MHz :           617.165944           230.612023           176.485870

                             ****ORCA TERMINATED NORMALLY****
TOTAL RUN TIME: 0 days 0 hours 2 minutes 38 seconds 932 msec
