                         Program Version 6.0.0  -   RELEASE  -
|  1> ! r2scan-3c def2/J RI DEFGRID2 scfconv6 printgap
|  2> %output
|  3>     printlevel normal
|  4> end
|  5> * xyz 0 1
|  6> C 1.5535727152 -1.7051297119 0.2493397227
|  7> O 0.2947681656 -1.0544040201 0.3798818491
|  8> C 0.0237019106 -0.1427796531 -0.6287425262
|  9> O 0.8494348285 0.9811999381 -0.5637975409
| 10> C 0.6720954125 1.8210686772 0.5794263529
| 11> O -1.3227549989 0.183182566 -0.6349362646
| 12> C -2.0866476808 -0.0787690557 0.547816123
| 13> H 1.5701556873 -2.3124247606 -0.6593629035
| 14> H 1.6436237527 -2.333474944 1.1305339411
| 15> H 2.363340119 -0.9733942192 0.2143143198
| 16> H 0.261188678 -0.5657178639 -1.6241794476
| 17> H 0.7477020717 1.2364801003 1.4991304008
| 18> H -0.2927512232 2.3290903861 0.5288140364
| 19> H 1.4799367897 2.545143985 0.5249311455
| 20> H -3.0684703667 0.3282984698 0.3230373855
| 21> H -1.6601595999 0.4115915039 1.4225166161
| 22> H -2.149371236 -1.1528544178 0.7268184149
| 23> *
| 24>
| 25>                          ****END OF INPUT****

CARTESIAN COORDINATES (ANGSTROEM)
---------------------------------
  C      1.553573   -1.705130    0.249340
  O      0.294768   -1.054404    0.379882
  C      0.023702   -0.142780   -0.628743
  O      0.849435    0.981200   -0.563798
  C      0.672095    1.821069    0.579426
  O     -1.322755    0.183183   -0.634936
  C     -2.086648   -0.078769    0.547816
  H      1.570156   -2.312425   -0.659363
  H      1.643624   -2.333475    1.130534
  H      2.363340   -0.973394    0.214314
  H      0.261189   -0.565718   -1.624179
  H      0.747702    1.236480    1.499130
  H     -0.292751    2.329090    0.528814
  H      1.479937    2.545144    0.524931
  H     -3.068470    0.328298    0.323037
  H     -1.660160    0.411592    1.422517
  H     -2.149371   -1.152854    0.726818

 Total Charge           Charge          ....    0
 Multiplicity           Mult            ....    1
 Number of Electrons    NEL             ....   58
 Basis Dimension        Dim             ....  198

ORBITAL ENERGIES
----------------

  NO   OCC          E(Eh)            E(eV)
   0   2.0000     -18.967227      -516.1245
   1   2.0000     -18.959487      -515.9139
   2   2.0000     -18.953895      -515.7617
   3   2.0000     -10.171762      -276.7877
   4   2.0000     -10.079718      -274.2831
   5   2.0000     -10.071164      -274.0503
   6   2.0000     -10.069511      -274.0053
   7   2.0000      -1.066643       -29.0248
   8   2.0000      -0.981827       -26.7169
   9   2.0000      -0.974157       -26.5082
  10   2.0000      -0.709596       -19.3091
  11   2.0000      -0.666119       -18.1260
  12   2.0000      -0.651247       -17.7213
  13   2.0000      -0.557408       -15.1678
  14   2.0000      -0.492465       -13.4007
  15   2.0000      -0.487414       -13.2632
  16   2.0000      -0.482946       -13.1416
  17   2.0000      -0.421331       -11.4650
  18   2.0000      -0.412204       -11.2167
  19   2.0000      -0.398304       -10.8384
  20   2.0000      -0.393695       -10.7130
  21   2.0000      -0.387939       -10.5564
  22   2.0000      -0.364256        -9.9119
  23   2.0000      -0.332961        -9.0603
  24   2.0000      -0.300803        -8.1853
  25   2.0000      -0.287532        -7.8241
  26   2.0000      -0.256667        -6.9843
  27   2.0000      -0.242445        -6.5973
  28   2.0000      -0.229697        -6.2504
  29   0.0000       0.064865         1.7651
  30   0.0000       0.081405         2.2151
  31   0.0000       0.089908         2.4465
  32   0.0000       0.102284         2.7833
  33   0.0000       0.115893         3.1536

MULLIKEN ATOMIC CHARGES
-----------------------
   0 C :   -0.305346
   1 O :   -0.208693
   2 C :    0.039974
   3 O :   -0.194861
   4 C :   -0.327303
   5 O :   -0.201734
   6 C :   -0.289111
   7 H :    0.140431
   8 H :    0.150061
   9 H :    0.163240
  10 H :    0.119456
  11 H :    0.156809
  12 H :    0.159196
  13 H :    0.149778
  14 H :    0.147800
  15 H :    0.143820
  16 H :    0.156482
Sum of atomic charges:   -0.0000000

LOEWDIN ATOMIC CHARGES
----------------------
   0 C :   -0.058120
   1 O :   -0.673290
   2 C :    0.410322
   3 O :   -0.648943
   4 C :   -0.074352
   5 O :   -0.630532
   6 C :   -0.056386
   7 H :    0.162401
   8 H :    0.176760
   9 H :    0.169238
  10 H :    0.208419
  11 H :    0.165307
  12 H :    0.166806
  13 H :    0.176310
  14 H :    0.175214
  15 H :    0.161536
  16 H :    0.169311

  Mayer bond orders larger than 0.100000
B(  0-C ,  1-O ) :   0.8651 B(  0-C ,  7-H ) :   0.9652 B(  0-C ,  8-H ) :   0.9708
B(  0-C ,  9-H ) :   0.9645 B(  1-O ,  2-C ) :   0.9833 B(  2-C ,  3-O ) :   1.0131
B(  2-C ,  5-O ) :   1.0667 B(  2-C , 10-H ) :   0.9639 B(  3-O ,  4-C ) :   0.8587
B(  4-C , 11-H ) :   0.9651 B(  4-C , 12-H ) :   0.9673 B(  4-C , 13-H ) :   0.9703
B(  5-O ,  6-C ) :   0.8468 B(  6-C , 14-H ) :   0.9711 B(  6-C , 15-H ) :   0.9617
B(  6-C , 16-H ) :   0.9713

Dispersion correction           -0.004125688
FINAL SINGLE POINT ENERGY      -383.992587271051

DIPOLE MOMENT
-------------

Method             : SCF
Type of density    : Electron Density
Multiplicity       :   1
Irrep              :   0
Energy             :  -384.0064531244090063 Eh
Relativity type    :
Basis              : AO
                                X                 Y                 Z
Electronic contribution:     -0.633135343       0.179435643      -3.216483614
Nuclear contribution   :      0.837195576      -0.455502752       3.821732864
                        -----------------------------------------
Total Dipole Moment    :      0.204060233      -0.276067109       0.605249250
                        -----------------------------------------
Magnitude (a.u.)       :      0.695830642
Magnitude (Debye)      :      1.768660933

Rotational constants in cm-1:             0.102350             0.082918             0.057200
Rotational constants in MHz :          3068.384632          2485.805243          1714.827694

                             ****ORCA TERMINATED NORMALLY****
TOTAL RUN TIME: 0 days 0 hours 0 minutes 23 seconds 648 msec
