                         Program Version 6.0.0  -   RELEASE  -
|  1> ! r2scan-3c def2/J RI DEFGRID2 scfconv6 printgap
|  2> %output
|  3>     printlevel normal
|  4> end
|  5> %cpcm
|  6>     smd true
|  7>     smdsolvent "water"
|  8> end
|  9> * xyz 0 1
| 10> C 1.5535727152 -1.7051297119 0.2493397227
| 11> O 0.2947681656 -1.0544040201 0.3798818491
| 12> C 0.0237019106 -0.1427796531 -0.6287425262
| 13> O 0.8494348285 0.9811999381 -0.5637975409
| 14> C 0.6720954125 1.8210686772 0.5794263529
| 15> O -1.3227549989 0.183182566 -0.6349362646
| 16> C -2.0866476808 -0.0787690557 0.547816123
| 17> H 1.5701556873 -2.3124247606 -0.6593629035
| 18> H 1.6436237527 -2.333474944 1.1305339411
| 19> H 2.363340119 -0.9733942192 0.2143143198
| 20> H 0.261188678 -0.5657178639 -1.6241794476
| 21> H 0.7477020717 1.2364801003 1.4991304008
| 22> H -0.2927512232 2.3290903861 0.5288140364
| 23> H 1.4799367897 2.545143985 0.5249311455
| 24> H -3.0684703667 0.3282984698 0.3230373855
| 25> H -1.6601595999 0.4115915039 1.4225166161
| 26> H -2.149371236 -1.1528544178 0.7268184149
| 27> *
| 28>
| 29>                          ****END OF INPUT****

CARTESIAN COORDINATES (ANGSTROEM)
---------------------------------
  C      1.553573   -1.705130    0.249340
  O      0.294768   -1.054404    0.379882
  C      0.023702   -0.142780   -0.628743
  O      0.849435    0.981200   -0.563798
  C      0.672095    1.821069    0.579426
  O     -1.322755    0.183183   -0.634936
  C     -2.086648   -0.078769    0.547816
  H      1.570156   -2.312425   -0.659363
  H      1.643624   -2.333475    1.130534
  H      2.363340   -0.973394    0.214314
  H      0.261189   -0.565718   -1.624179
  H      0.747702    1.236480    1.499130
  H     -0.292751    2.329090    0.528814
  H      1.479937    2.545144    0.524931
  H     -3.068470    0.328298    0.323037
  H     -1.660160    0.411592    1.422517
  H     -2.149371   -1.152854    0.726818

 Total Charge           Charge          ....    0
 Multiplicity           Mult            ....    1
 Number of Electrons    NEL             ....   58
 Basis Dimension        Dim             ....  198

ORBITAL ENERGIES
----------------

  NO   OCC          E(Eh)            E(eV)
   0   2.0000     -18.971114      -516.2302
   1   2.0000     -18.969911      -516.1975
   2   2.0000     -18.964237      -516.0431
   3   2.0000     -10.176168      -276.9076
   4   2.0000     -10.069937      -274.0169
   5   2.0000     -10.068164      -273.9687
   6   2.0000     -10.065725      -273.9023
   7   2.0000      -1.073558       -29.2130
   8   2.0000      -0.987635       -26.8749
   9   2.0000      -0.983242       -26.7554
  10   2.0000      -0.711030       -19.3481
  11   2.0000      -0.662172       -18.0186
  12   2.0000      -0.651286       -17.7224
  13   2.0000      -0.556478       -15.1425
  14   2.0000      -0.493482       -13.4283
  15   2.0000      -0.490519       -13.3477
  16   2.0000      -0.487288       -13.2598
  17   2.0000      -0.419553       -11.4166
  18   2.0000      -0.411780       -11.2051
  19   2.0000      -0.396702       -10.7948
  20   2.0000      -0.392754       -10.6874
  21   2.0000      -0.384638       -10.4665
  22   2.0000      -0.360808        -9.8181
  23   2.0000      -0.336074        -9.1450
  24   2.0000      -0.307272        -8.3613
  25   2.0000      -0.292922        -7.9708
  26   2.0000      -0.261953        -7.1281
  27   2.0000      -0.247689        -6.7400
  28   2.0000      -0.238542        -6.4911
  29   0.0000       0.067138         1.8269
  30   0.0000       0.081477         2.2171
  31   0.0000       0.090883         2.4731
  32   0.0000       0.112421         3.0591
  33   0.0000       0.119649         3.2558

MULLIKEN ATOMIC CHARGES
-----------------------
   0 C :   -0.321744
   1 O :   -0.248481
   2 C :    0.052052
   3 O :   -0.258025
   4 C :   -0.322937
   5 O :   -0.254731
   6 C :   -0.309231
   7 H :    0.164552
   8 H :    0.171873
   9 H :    0.168380
  10 H :    0.145190
  11 H :    0.171768
  12 H :    0.168482
  13 H :    0.169465
  14 H :    0.168828
  15 H :    0.168756
  16 H :    0.165803
Sum of atomic charges:   -0.0000000

LOEWDIN ATOMIC CHARGES
----------------------
   0 C :   -0.054926
   1 O :   -0.689972
   2 C :    0.406772
   3 O :   -0.681349
   4 C :   -0.070693
   5 O :   -0.661262
   6 C :   -0.055785
   7 H :    0.172308
   8 H :    0.185480
   9 H :    0.172630
  10 H :    0.218666
  11 H :    0.173681
  12 H :    0.172170
  13 H :    0.184014
  14 H :    0.183806
  15 H :    0.171406
  16 H :    0.173052

  Mayer bond orders larger than 0.100000
B(  0-C ,  1-O ) :   0.8534 B(  0-C ,  7-H ) :   0.9589 B(  0-C ,  8-H ) :   0.9619
B(  0-C ,  9-H ) :   0.9597 B(  1-O ,  2-C ) :   0.9949 B(  2-C ,  3-O ) :   0.9957
B(  2-C ,  5-O ) :   1.0625 B(  2-C , 10-H ) :   0.9576 B(  3-O ,  4-C ) :   0.8530
B(  4-C , 11-H ) :   0.9581 B(  4-C , 12-H ) :   0.9598 B(  4-C , 13-H ) :   0.9621
B(  5-O ,  6-C ) :   0.8344 B(  6-C , 14-H ) :   0.9626 B(  6-C , 15-H ) :   0.9554
B(  6-C , 16-H ) :   0.9642

Dispersion correction           -0.004125688
FINAL SINGLE POINT ENERGY      -383.997427762864

DIPOLE MOMENT
-------------

Method             : SCF
Type of density    : Electron Density
Multiplicity       :   1
Irrep              :   0
Energy             :  -384.0112936162214510 Eh
Relativity type    :
Basis              : AO
                                X                 Y                 Z
Electronic contribution:     -0.566783659       0.093356307      -2.984597336
Nuclear contribution   :      0.837195576      -0.455502752       3.821732864
                        -----------------------------------------
Total Dipole Moment    :      0.270411916      -0.362146445       0.837135528
                        -----------------------------------------
Magnitude (a.u.)       :      0.951350905
Magnitude (Debye)      :      2.418141827

Rotational constants in cm-1:             0.102350             0.082918             0.057200
Rotational constants in MHz :          3068.384632          2485.805243          1714.827694

                             ****ORCA TERMINATED NORMALLY****
TOTAL RUN TIME: 0 days 0 hours 0 minutes 30 seconds 689 msec
