                         Program Version 6.0.0  -   RELEASE  -
|  1> ! r2scan-3c def2/J RI DEFGRID2 scfconv6 printgap
|  2> %output
|  3>     printlevel normal
|  4> end
|  5> * xyz 0 1
|  6> C -3.1599455475 -0.7750680334 -0.0606203272
|  7> C -2.2662667835 0.3067198059 -0.6571280451
|  8> C -1.4102118091 1.0211368626 0.3902117919
|  9> C -0.2891897306 0.1535971145 0.9737408834
| 10> C 0.8511830081 -0.0694417447 0.0149220532
| 11> O 0.7555139449 -0.2767961429 -1.1760920724
| 12> O 2.016027815 -0.0192044607 0.6571074417
| 13> C 3.227302746 -0.2385304064 -0.0729300975
| 14> H -3.7913899274 -0.3586735159 0.7211314001
| 15> H -3.7998966862 -1.1970537863 -0.8314026423
| 16> H -2.5714763203 -1.5845551506 0.3638329955
| 17> H -1.6135630227 -0.1272745029 -1.4155965939
| 18> H -2.8965233002 1.0508277477 -1.1484533362
| 19> H -2.0512073798 1.3470661235 1.2111822238
| 20> H -0.9656058736 1.9098277561 -0.0623282655
| 21> H -0.6851991346 -0.8280324714 1.2404780185
| 22> H 0.1228312765 0.6084217164 1.8743854926
| 23> H 2.9959578942 -0.4565267858 -1.1162011705
| 24> H 3.7429883465 -1.0779165658 0.389289751
| 25> H 3.8298323931 0.6647638519 0.002591182
| 26> *
| 27>
| 28>                          ****END OF INPUT****

CARTESIAN COORDINATES (ANGSTROEM)
---------------------------------
  C     -3.159946   -0.775068   -0.060620
  C     -2.266267    0.306720   -0.657128
  C     -1.410212    1.021137    0.390212
  C     -0.289190    0.153597    0.973741
  C      0.851183   -0.069442    0.014922
  O      0.755514   -0.276796   -1.176092
  O      2.016028   -0.019204    0.657107
  C      3.227303   -0.238530   -0.072930
  H     -3.791390   -0.358674    0.721131
  H     -3.799897   -1.197054   -0.831403
  H     -2.571476   -1.584555    0.363833
  H     -1.613563   -0.127275   -1.415597
  H     -2.896523    1.050828   -1.148453
  H     -2.051207    1.347066    1.211182
  H     -0.965606    1.909828   -0.062328
  H     -0.685199   -0.828032    1.240478
  H      0.122831    0.608422    1.874385
  H      2.995958   -0.456527   -1.116201
  H      3.742988   -1.077917    0.389290
  H      3.829832    0.664764    0.002591

 Total Charge           Charge          ....    0
 Multiplicity           Mult            ....    1
 Number of Electrons    NEL             ....   64
 Basis Dimension        Dim             ....  222

ORBITAL ENERGIES
----------------

  NO   OCC          E(Eh)            E(eV)
   0   2.0000     -18.999243      -516.9957
   1   2.0000     -18.930634      -515.1287
   2   2.0000     -10.155070      -276.3335
   3   2.0000     -10.084803      -274.4214
   4   2.0000     -10.042490      -273.2700
   5   2.0000     -10.031752      -272.9779
   6   2.0000     -10.016852      -272.5724
   7   2.0000     -10.013238      -272.4741
   8   2.0000      -1.072684       -29.1892
   9   2.0000      -0.978347       -26.6222
  10   2.0000      -0.774654       -21.0794
  11   2.0000      -0.725232       -19.7346
  12   2.0000      -0.683090       -18.5878
  13   2.0000      -0.620361       -16.8809
  14   2.0000      -0.549950       -14.9649
  15   2.0000      -0.525509       -14.2998
  16   2.0000      -0.470708       -12.8086
  17   2.0000      -0.454877       -12.3778
  18   2.0000      -0.445989       -12.1360
  19   2.0000      -0.422797       -11.5049
  20   2.0000      -0.420517       -11.4428
  21   2.0000      -0.389404       -10.5962
  22   2.0000      -0.380521       -10.3545
  23   2.0000      -0.356376        -9.6975
  24   2.0000      -0.351120        -9.5545
  25   2.0000      -0.338589        -9.2135
  26   2.0000      -0.316960        -8.6249
  27   2.0000      -0.302719        -8.2374
  28   2.0000      -0.294866        -8.0237
  29   2.0000      -0.291458        -7.9310
  30   2.0000      -0.273313        -7.4372
  31   2.0000      -0.236380        -6.4322
  32   0.0000      -0.015710        -0.4275
  33   0.0000       0.067882         1.8472
  34   0.0000       0.087908         2.3921
  35   0.0000       0.109118         2.9693
  36   0.0000       0.116555         3.1716

MULLIKEN ATOMIC CHARGES
-----------------------
   0 C :   -0.491228
   1 C :   -0.273855
   2 C :   -0.228374
   3 C :   -0.307804
   4 C :    0.367003
   5 O :   -0.438573
   6 O :   -0.191281
   7 C :   -0.309588
   8 H :    0.142492
   9 H :    0.148940
  10 H :    0.140350
  11 H :    0.185635
  12 H :    0.138353
  13 H :    0.151176
  14 H :    0.141930
  15 H :    0.171270
  16 H :    0.168182
  17 H :    0.189973
  18 H :    0.147460
  19 H :    0.147938
Sum of atomic charges:   -0.0000000

LOEWDIN ATOMIC CHARGES
----------------------
   0 C :   -0.425431
   1 C :   -0.315218
   2 C :   -0.288275
   3 C :   -0.228717
   4 C :    0.364097
   5 O :   -0.449935
   6 O :   -0.606347
   7 C :   -0.047279
   8 H :    0.147738
   9 H :    0.152804
  10 H :    0.145508
  11 H :    0.176619
  12 H :    0.151419
  13 H :    0.156179
  14 H :    0.162724
  15 H :    0.182572
  16 H :    0.181494
  17 H :    0.193428
  18 H :    0.173329
  19 H :    0.173294

  Mayer bond orders larger than 0.100000
B(  0-C ,  1-C ) :   0.8974 B(  0-C ,  8-H ) :   0.9820 B(  0-C ,  9-H ) :   0.9706
B(  0-C , 10-H ) :   0.9824 B(  1-C ,  2-C ) :   0.8959 B(  1-C , 11-H ) :   0.9722
B(  1-C , 12-H ) :   0.9623 B(  2-C ,  3-C ) :   0.8777 B(  2-C , 13-H ) :   0.9835
B(  2-C , 14-H ) :   0.9698 B(  3-C ,  4-C ) :   0.9876 B(  3-C , 15-H ) :   0.9542
B(  3-C , 16-H ) :   0.9536 B(  4-C ,  5-O ) :   1.8437 B(  4-C ,  6-O ) :   1.0743
B(  6-O ,  7-C ) :   0.8400 B(  7-C , 17-H ) :   0.9678 B(  7-C , 18-H ) :   0.9641
B(  7-C , 19-H ) :   0.9643

Dispersion correction           -0.005153771
FINAL SINGLE POINT ENERGY      -386.227029466500

DIPOLE MOMENT
-------------

Method             : SCF
Type of density    : Electron Density
Multiplicity       :   1
Irrep              :   0
Energy             :  -386.2342625026041674 Eh
Relativity type    :
Basis              : AO
                                X                 Y                 Z
Electronic contribution:      7.489614641       0.159651250      -0.557941870
Nuclear contribution   :     -7.167074032      -0.050477133       1.145225961
                        -----------------------------------------
Total Dipole Moment    :      0.322540609       0.109174117       0.587284090
                        -----------------------------------------
Magnitude (a.u.)       :      0.678862309
Magnitude (Debye)      :      1.725530860

Rotational constants in cm-1:             0.175054             0.031354             0.029585
Rotational constants in MHz :          5247.994015           939.958090           886.930107

                             ****ORCA TERMINATED NORMALLY****
TOTAL RUN TIME: 0 days 0 hours 0 minutes 25 seconds 287 msec
