                         Program Version 6.0.0  -   RELEASE  -
|  1> ! r2scan-3c def2/J RI DEFGRID2 scfconv6 printgap
|  2> %output
|  3>     printlevel normal
|  4> end
|  5> %cpcm
|  6>     smd true
|  7>     smdsolvent "water"
|  8> end
|  9> * xyz 0 1
| 10> C -3.1599455475 -0.7750680334 -0.0606203272
| 11> C -2.2662667835 0.3067198059 -0.6571280451
| 12> C -1.4102118091 1.0211368626 0.3902117919
| 13> C -0.2891897306 0.1535971145 0.9737408834
| 14> C 0.8511830081 -0.0694417447 0.0149220532
| 15> O 0.7555139449 -0.2767961429 -1.1760920724
| 16> O 2.016027815 -0.0192044607 0.6571074417
| 17> C 3.227302746 -0.2385304064 -0.0729300975
| 18> H -3.7913899274 -0.3586735159 0.7211314001
| 19> H -3.7998966862 -1.1970537863 -0.8314026423
| 20> H -2.5714763203 -1.5845551506 0.3638329955
| 21> H -1.6135630227 -0.1272745029 -1.4155965939
| 22> H -2.8965233002 1.0508277477 -1.1484533362
| 23> H -2.0512073798 1.3470661235 1.2111822238
| 24> H -0.9656058736 1.9098277561 -0.0623282655
| 25> H -0.6851991346 -0.8280324714 1.2404780185
| 26> H 0.1228312765 0.6084217164 1.8743854926
| 27> H 2.9959578942 -0.4565267858 -1.1162011705
| 28> H 3.7429883465 -1.0779165658 0.389289751
| 29> H 3.8298323931 0.6647638519 0.002591182
| 30> *
| 31>
| 32>                          ****END OF INPUT****

CARTESIAN COORDINATES (ANGSTROEM)
---------------------------------
  C     -3.159946   -0.775068   -0.060620
  C     -2.266267    0.306720   -0.657128
  C     -1.410212    1.021137    0.390212
  C     -0.289190    0.153597    0.973741
  C      0.851183   -0.069442    0.014922
  O      0.755514   -0.276796   -1.176092
  O      2.016028   -0.019204    0.657107
  C      3.227303   -0.238530   -0.072930
  H     -3.791390   -0.358674    0.721131
  H     -3.799897   -1.197054   -0.831403
  H     -2.571476   -1.584555    0.363833
  H     -1.613563   -0.127275   -1.415597
  H     -2.896523    1.050828   -1.148453
  H     -2.051207    1.347066    1.211182
  H     -0.965606    1.909828   -0.062328
  H     -0.685199   -0.828032    1.240478
  H      0.122831    0.608422    1.874385
  H      2.995958   -0.456527   -1.116201
  H      3.742988   -1.077917    0.389290
  H      3.829832    0.664764    0.002591

 Total Charge           Charge          ....    0
 Multiplicity           Mult            ....    1
 Number of Electrons    NEL             ....   64
 Basis Dimension        Dim             ....  222

ORBITAL ENERGIES
----------------

  NO   OCC          E(Eh)            E(eV)
   0   2.0000     -19.002822      -517.0931
   1   2.0000     -18.942375      -515.4482
   2   2.0000     -10.162530      -276.5365
   3   2.0000     -10.074030      -274.1283
   4   2.0000     -10.035354      -273.0759
   5   2.0000     -10.024609      -272.7835
   6   2.0000     -10.014949      -272.5206
   7   2.0000     -10.007329      -272.3133
   8   2.0000      -1.077470       -29.3195
   9   2.0000      -0.988371       -26.8949
  10   2.0000      -0.769823       -20.9479
  11   2.0000      -0.721362       -19.6293
  12   2.0000      -0.676863       -18.4184
  13   2.0000      -0.614332       -16.7168
  14   2.0000      -0.545899       -14.8547
  15   2.0000      -0.523469       -14.2443
  16   2.0000      -0.469597       -12.7784
  17   2.0000      -0.458742       -12.4830
  18   2.0000      -0.446736       -12.1563
  19   2.0000      -0.420472       -11.4416
  20   2.0000      -0.415664       -11.3108
  21   2.0000      -0.386977       -10.5302
  22   2.0000      -0.376923       -10.2566
  23   2.0000      -0.351113        -9.5543
  24   2.0000      -0.345962        -9.4141
  25   2.0000      -0.335048        -9.1171
  26   2.0000      -0.317919        -8.6510
  27   2.0000      -0.301440        -8.2026
  28   2.0000      -0.289312        -7.8726
  29   2.0000      -0.287233        -7.8160
  30   2.0000      -0.277839        -7.5604
  31   2.0000      -0.246703        -6.7131
  32   0.0000      -0.020839        -0.5671
  33   0.0000       0.073500         2.0000
  34   0.0000       0.095315         2.5936
  35   0.0000       0.118429         3.2226
  36   0.0000       0.121685         3.3112

MULLIKEN ATOMIC CHARGES
-----------------------
   0 C :   -0.529110
   1 C :   -0.278100
   2 C :   -0.254476
   3 C :   -0.315108
   4 C :    0.394508
   5 O :   -0.512708
   6 O :   -0.210051
   7 C :   -0.323245
   8 H :    0.156138
   9 H :    0.157105
  10 H :    0.158098
  11 H :    0.162518
  12 H :    0.150664
  13 H :    0.169314
  14 H :    0.156063
  15 H :    0.202197
  16 H :    0.182554
  17 H :    0.185227
  18 H :    0.173841
  19 H :    0.174571
Sum of atomic charges:   -0.0000000

LOEWDIN ATOMIC CHARGES
----------------------
   0 C :   -0.432971
   1 C :   -0.318379
   2 C :   -0.289058
   3 C :   -0.225712
   4 C :    0.373856
   5 O :   -0.504767
   6 O :   -0.610614
   7 C :   -0.042321
   8 H :    0.152601
   9 H :    0.153765
  10 H :    0.151162
  11 H :    0.166615
  12 H :    0.154517
  13 H :    0.163536
  14 H :    0.165138
  15 H :    0.193891
  16 H :    0.188325
  17 H :    0.191952
  18 H :    0.184306
  19 H :    0.184157

  Mayer bond orders larger than 0.100000
B(  0-C ,  1-C ) :   0.8982 B(  0-C ,  8-H ) :   0.9783 B(  0-C ,  9-H ) :   0.9686
B(  0-C , 10-H ) :   0.9777 B(  1-C ,  2-C ) :   0.8882 B(  1-C , 11-H ) :   0.9790
B(  1-C , 12-H ) :   0.9625 B(  2-C ,  3-C ) :   0.8590 B(  2-C , 13-H ) :   0.9773
B(  2-C , 14-H ) :   0.9731 B(  3-C ,  4-C ) :   0.9888 B(  3-C , 15-H ) :   0.9437
B(  3-C , 16-H ) :   0.9463 B(  4-C ,  5-O ) :   1.7902 B(  4-C ,  6-O ) :   1.0927
B(  6-O ,  7-C ) :   0.8283 B(  7-C , 17-H ) :   0.9642 B(  7-C , 18-H ) :   0.9550
B(  7-C , 19-H ) :   0.9552

Dispersion correction           -0.005153771
FINAL SINGLE POINT ENERGY      -386.230046241728

DIPOLE MOMENT
-------------

Method             : SCF
Type of density    : Electron Density
Multiplicity       :   1
Irrep              :   0
Energy             :  -386.2372792778330108 Eh
Relativity type    :
Basis              : AO
                                X                 Y                 Z
Electronic contribution:      7.564526348       0.206619476      -0.195807502
Nuclear contribution   :     -7.167074032      -0.050477133       1.145225961
                        -----------------------------------------
Total Dipole Moment    :      0.397452316       0.156142344       0.949418459
                        -----------------------------------------
Magnitude (a.u.)       :      1.041030348
Magnitude (Debye)      :      2.646088856

Rotational constants in cm-1:             0.175054             0.031354             0.029585
Rotational constants in MHz :          5247.994015           939.958090           886.930107

                             ****ORCA TERMINATED NORMALLY****
TOTAL RUN TIME: 0 days 0 hours 0 minutes 33 seconds 45 msec
