                         Program Version 6.0.0  -   RELEASE  -
|  1> ! r2scan-3c def2/J RI DEFGRID2 scfconv6 printgap
|  2> %output
|  3>     printlevel normal
|  4> end
|  5> * xyz 0 1
|  6> C -3.5443619217 0.2216311082 -1.8196098029
|  7> C -3.138566779 -0.4361997454 -0.5005172943
|  8> H -3.5583618586 -1.444336129 -0.4390979785
|  9> C -1.6322486174 -0.5287790482 -0.3498041553
| 10> C -1.0253008774 -1.787492567 -0.1890099148
| 11> C 0.3306780079 -1.9017654932 -0.0595191961
| 12> C 1.1589920785 -0.7611651685 -0.0777914254
| 13> C 2.5600872311 -0.8567940599 0.055678173
| 14> C 3.3368058413 0.2743817721 0.0386225459
| 15> C 2.7298218946 1.5437371114 -0.1139671853
| 16> C 1.3794243994 1.656298845 -0.2449774908
| 17> C 0.5519660289 0.5109185522 -0.2317065799
| 18> C -0.8462895455 0.5961738004 -0.3629998317
| 19> O 4.6948036292 0.303486156 0.15907467
| 20> C 5.3850429722 -0.9212530297 0.3137321493
| 21> C -3.6420435101 0.3220089002 0.7081974299
| 22> O -4.009245851 -0.2183339614 1.7323372928
| 23> O -3.6102690597 1.6341803304 0.5713452448
| 24> H -4.6274176466 0.2399493245 -1.9110092677
| 25> H -3.1727867983 1.2399223206 -1.8726891228
| 26> H -3.130392078 -0.3474323946 -2.6473815937
| 27> H -1.6460052245 -2.6711038938 -0.1694185426
| 28> H 0.7848247708 -2.8743365078 0.0606551195
| 29> H 2.9917818379 -1.8384272844 0.1708746365
| 30> H 3.3758144096 2.4073664863 -0.1220800284
| 31> H 0.9227410582 2.6274247201 -0.3617067012
| 32> H -1.2926928311 1.5736490939 -0.4702735829
| 33> H 5.0700549601 -1.4384691143 1.2238210974
| 34> H 6.4358051665 -0.6514479378 0.3902003786
| 35> H 5.2329794594 -1.5705373089 -0.5524302302
| 36> H -3.9079295416 2.102725304 1.3752095652
| 37> *
| 38>
| 39>                          ****END OF INPUT****

CARTESIAN COORDINATES (ANGSTROEM)
---------------------------------
  C     -3.544362    0.221631   -1.819610
  C     -3.138567   -0.436200   -0.500517
  H     -3.558362   -1.444336   -0.439098
  C     -1.632249   -0.528779   -0.349804
  C     -1.025301   -1.787493   -0.189010
  C      0.330678   -1.901765   -0.059519
  C      1.158992   -0.761165   -0.077791
  C      2.560087   -0.856794    0.055678
  C      3.336806    0.274382    0.038623
  C      2.729822    1.543737   -0.113967
  C      1.379424    1.656299   -0.244977
  C      0.551966    0.510919   -0.231707
  C     -0.846290    0.596174   -0.363000
  O      4.694804    0.303486    0.159075
  C      5.385043   -0.921253    0.313732
  C     -3.642044    0.322009    0.708197
  O     -4.009246   -0.218334    1.732337
  O     -3.610269    1.634180    0.571345
  H     -4.627418    0.239949   -1.911009
  H     -3.172787    1.239922   -1.872689
  H     -3.130392   -0.347432   -2.647382
  H     -1.646005   -2.671104   -0.169419
  H      0.784825   -2.874337    0.060655
  H      2.991782   -1.838427    0.170875
  H      3.375814    2.407366   -0.122080
  H      0.922741    2.627425   -0.361707
  H     -1.292693    1.573649   -0.470274
  H      5.070055   -1.438469    1.223821
  H      6.435805   -0.651448    0.390200
  H      5.232979   -1.570537   -0.552430
  H     -3.907930    2.102725    1.375210

 Total Charge           Charge          ....    0
 Multiplicity           Mult            ....    1
 Number of Electrons    NEL             ....  122
 Basis Dimension        Dim             ....  408

ORBITAL ENERGIES
----------------

  NO   OCC          E(Eh)            E(eV)
   0   2.0000     -19.007195      -517.2121
   1   2.0000     -18.990945      -516.7699
   2   2.0000     -18.929862      -515.1077
   3   2.0000     -10.160203      -276.4732
   4   2.0000     -10.099450      -274.8200
   5   2.0000     -10.090315      -274.5714
   6   2.0000     -10.059288      -273.7271
   7   2.0000     -10.048160      -273.4243
   8   2.0000     -10.048129      -273.4235
   9   2.0000     -10.043870      -273.3076
  10   2.0000     -10.041431      -273.2412
  11   2.0000     -10.037838      -273.1434
  12   2.0000     -10.036840      -273.1163
  13   2.0000     -10.036049      -273.0948
  14   2.0000     -10.035339      -273.0755
  15   2.0000     -10.034536      -273.0536
  16   2.0000     -10.029798      -272.9247
  17   2.0000      -1.080901       -29.4128
  18   2.0000      -1.038270       -28.2528
  19   2.0000      -0.976426       -26.5699
  20   2.0000      -0.850329       -23.1386
  21   2.0000      -0.808880       -22.0107
  22   2.0000      -0.768944       -20.9240
  23   2.0000      -0.743959       -20.2441
  24   2.0000      -0.718136       -19.5415
  25   2.0000      -0.693070       -18.8594
  26   2.0000      -0.670240       -18.2382
  27   2.0000      -0.640215       -17.4211
  28   2.0000      -0.605279       -16.4705
  29   2.0000      -0.592028       -16.1099
  30   2.0000      -0.571975       -15.5642
  31   2.0000      -0.556875       -15.1533
  32   2.0000      -0.505334       -13.7508
  33   2.0000      -0.488627       -13.2962
  34   2.0000      -0.486784       -13.2461
  35   2.0000      -0.456814       -12.4306
  36   2.0000      -0.444749       -12.1022
  37   2.0000      -0.442397       -12.0382
  38   2.0000      -0.439986       -11.9726
  39   2.0000      -0.427630       -11.6364
  40   2.0000      -0.421012       -11.4563
  41   2.0000      -0.412930       -11.2364
  42   2.0000      -0.401408       -10.9229
  43   2.0000      -0.394091       -10.7238
  44   2.0000      -0.382620       -10.4116
  45   2.0000      -0.376909       -10.2562
  46   2.0000      -0.372410       -10.1338
  47   2.0000      -0.361380        -9.8336
  48   2.0000      -0.350979        -9.5506
  49   2.0000      -0.345200        -9.3934
  50   2.0000      -0.334212        -9.0944
  51   2.0000      -0.328830        -8.9479
  52   2.0000      -0.320181        -8.7126
  53   2.0000      -0.309368        -8.4183
  54   2.0000      -0.297334        -8.0909
  55   2.0000      -0.287737        -7.8297
  56   2.0000      -0.282296        -7.6817
  57   2.0000      -0.265083        -7.2133
  58   2.0000      -0.235299        -6.4028
  59   2.0000      -0.219383        -5.9697
  60   2.0000      -0.193920        -5.2768
  61   0.0000      -0.065851        -1.7919
  62   0.0000      -0.039605        -1.0777
  63   0.0000      -0.009129        -0.2484
  64   0.0000      -0.005053        -0.1375
  65   0.0000       0.051084         1.3901

MULLIKEN ATOMIC CHARGES
-----------------------
   0 C :   -0.494837
   1 C :   -0.050998
   2 H :    0.157008
   3 C :    0.159773
   4 C :   -0.225004
   5 C :   -0.312493
   6 C :    0.231651
   7 C :   -0.368890
   8 C :    0.365033
   9 C :   -0.319202
  10 C :   -0.269553
  11 C :    0.171223
  12 C :   -0.265613
  13 O :   -0.180055
  14 C :   -0.331634
  15 C :    0.280390
  16 O :   -0.380194
  17 O :   -0.332681
  18 H :    0.152056
  19 H :    0.168884
  20 H :    0.157020
  21 H :    0.146050
  22 H :    0.138917
  23 H :    0.144284
  24 H :    0.158260
  25 H :    0.144433
  26 H :    0.160013
  27 H :    0.154168
  28 H :    0.156093
  29 H :    0.153878
  30 H :    0.332023
Sum of atomic charges:   -0.0000000

LOEWDIN ATOMIC CHARGES
----------------------
   0 C :   -0.374073
   1 C :   -0.144172
   2 H :    0.187242
   3 C :   -0.074416
   4 C :   -0.144271
   5 C :   -0.145076
   6 C :   -0.045617
   7 C :   -0.162162
   8 C :    0.190999
   9 C :   -0.120018
  10 C :   -0.133305
  11 C :   -0.062401
  12 C :   -0.124178
  13 O :   -0.681551
  14 C :   -0.054379
  15 C :    0.351134
  16 O :   -0.414208
  17 O :   -0.408756
  18 H :    0.158590
  19 H :    0.167848
  20 H :    0.160471
  21 H :    0.171705
  22 H :    0.170217
  23 H :    0.178204
  24 H :    0.182497
  25 H :    0.172307
  26 H :    0.182943
  27 H :    0.166076
  28 H :    0.180648
  29 H :    0.165880
  30 H :    0.301822

  Mayer bond orders larger than 0.100000
B(  0-C ,  1-C ) :   0.9279 B(  0-C , 18-H ) :   0.9737 B(  0-C , 19-H ) :   0.9647
B(  0-C , 20-H ) :   0.9724 B(  1-C ,  2-H ) :   0.9634 B(  1-C ,  3-C ) :   0.7803
B(  1-C , 15-C ) :   0.9888 B(  3-C ,  4-C ) :   1.2741 B(  3-C , 12-C ) :   1.4842
B(  4-C ,  5-C ) :   1.5068 B(  4-C , 21-H ) :   0.9281 B(  5-C ,  6-C ) :   1.2187
B(  5-C , 22-H ) :   0.9576 B(  6-C ,  7-C ) :   1.1795 B(  6-C , 11-C ) :   1.5390
B(  7-C ,  8-C ) :   1.4291 B(  7-C , 23-H ) :   0.9014 B(  8-C ,  9-C ) :   1.2688
B(  8-C , 13-O ) :   1.0636 B(  9-C , 10-C ) :   1.4542 B(  9-C , 24-H ) :   0.9439
B( 10-C , 11-C ) :   1.1955 B( 10-C , 25-H ) :   0.9507 B( 11-C , 12-C ) :   1.2070
B( 12-C , 26-H ) :   0.9302 B( 13-O , 14-C ) :   0.8571 B( 14-C , 27-H ) :   0.9626
B( 14-C , 28-H ) :   0.9680 B( 14-C , 29-H ) :   0.9627 B( 15-C , 16-O ) :   1.9539
B( 15-C , 17-O ) :   1.0320 B( 17-O , 30-H ) :   0.8581

Dispersion correction           -0.013103303
FINAL SINGLE POINT ENERGY      -767.445889039776

DIPOLE MOMENT
-------------

Method             : SCF
Type of density    : Electron Density
Multiplicity       :   1
Irrep              :   0
Energy             :  -767.4464826871317200 Eh
Relativity type    :
Basis              : AO
                                X                 Y                 Z
Electronic contribution:     -2.584840432       2.565830430       4.441650750
Nuclear contribution   :      3.220026269      -2.456044425      -4.959586188
                        -----------------------------------------
Total Dipole Moment    :      0.635185837       0.109786006      -0.517935438
                        -----------------------------------------
Magnitude (a.u.)       :      0.826904548
Magnitude (Debye)      :      2.101824327

Rotational constants in cm-1:             0.041893             0.007279             0.006843
Rotational constants in MHz :          1255.913912           218.211347           205.147019

                             ****ORCA TERMINATED NORMALLY****
TOTAL RUN TIME: 0 days 0 hours 1 minutes 26 seconds 736 msec
