                         Program Version 6.0.0  -   RELEASE  -
|  1> ! r2scan-3c def2/J RI DEFGRID2 scfconv6 printgap
|  2> %output
|  3>     printlevel normal
|  4> end
|  5> %cpcm
|  6>     smd true
|  7>     smdsolvent "water"
|  8> end
|  9> * xyz 0 1
| 10> C -3.5443619217 0.2216311082 -1.8196098029
| 11> C -3.138566779 -0.4361997454 -0.5005172943
| 12> H -3.5583618586 -1.444336129 -0.4390979785
| 13> C -1.6322486174 -0.5287790482 -0.3498041553
| 14> C -1.0253008774 -1.787492567 -0.1890099148
| 15> C 0.3306780079 -1.9017654932 -0.0595191961
| 16> C 1.1589920785 -0.7611651685 -0.0777914254
| 17> C 2.5600872311 -0.8567940599 0.055678173
| 18> C 3.3368058413 0.2743817721 0.0386225459
| 19> C 2.7298218946 1.5437371114 -0.1139671853
| 20> C 1.3794243994 1.656298845 -0.2449774908
| 21> C 0.5519660289 0.5109185522 -0.2317065799
| 22> C -0.8462895455 0.5961738004 -0.3629998317
| 23> O 4.6948036292 0.303486156 0.15907467
| 24> C 5.3850429722 -0.9212530297 0.3137321493
| 25> C -3.6420435101 0.3220089002 0.7081974299
| 26> O -4.009245851 -0.2183339614 1.7323372928
| 27> O -3.6102690597 1.6341803304 0.5713452448
| 28> H -4.6274176466 0.2399493245 -1.9110092677
| 29> H -3.1727867983 1.2399223206 -1.8726891228
| 30> H -3.130392078 -0.3474323946 -2.6473815937
| 31> H -1.6460052245 -2.6711038938 -0.1694185426
| 32> H 0.7848247708 -2.8743365078 0.0606551195
| 33> H 2.9917818379 -1.8384272844 0.1708746365
| 34> H 3.3758144096 2.4073664863 -0.1220800284
| 35> H 0.9227410582 2.6274247201 -0.3617067012
| 36> H -1.2926928311 1.5736490939 -0.4702735829
| 37> H 5.0700549601 -1.4384691143 1.2238210974
| 38> H 6.4358051665 -0.6514479378 0.3902003786
| 39> H 5.2329794594 -1.5705373089 -0.5524302302
| 40> H -3.9079295416 2.102725304 1.3752095652
| 41> *
| 42>
| 43>                          ****END OF INPUT****

CARTESIAN COORDINATES (ANGSTROEM)
---------------------------------
  C     -3.544362    0.221631   -1.819610
  C     -3.138567   -0.436200   -0.500517
  H     -3.558362   -1.444336   -0.439098
  C     -1.632249   -0.528779   -0.349804
  C     -1.025301   -1.787493   -0.189010
  C      0.330678   -1.901765   -0.059519
  C      1.158992   -0.761165   -0.077791
  C      2.560087   -0.856794    0.055678
  C      3.336806    0.274382    0.038623
  C      2.729822    1.543737   -0.113967
  C      1.379424    1.656299   -0.244977
  C      0.551966    0.510919   -0.231707
  C     -0.846290    0.596174   -0.363000
  O      4.694804    0.303486    0.159075
  C      5.385043   -0.921253    0.313732
  C     -3.642044    0.322009    0.708197
  O     -4.009246   -0.218334    1.732337
  O     -3.610269    1.634180    0.571345
  H     -4.627418    0.239949   -1.911009
  H     -3.172787    1.239922   -1.872689
  H     -3.130392   -0.347432   -2.647382
  H     -1.646005   -2.671104   -0.169419
  H      0.784825   -2.874337    0.060655
  H      2.991782   -1.838427    0.170875
  H      3.375814    2.407366   -0.122080
  H      0.922741    2.627425   -0.361707
  H     -1.292693    1.573649   -0.470274
  H      5.070055   -1.438469    1.223821
  H      6.435805   -0.651448    0.390200
  H      5.232979   -1.570537   -0.552430
  H     -3.907930    2.102725    1.375210

 Total Charge           Charge          ....    0
 Multiplicity           Mult            ....    1
 Number of Electrons    NEL             ....  122
 Basis Dimension        Dim             ....  408

ORBITAL ENERGIES
----------------

  NO   OCC          E(Eh)            E(eV)
   0   2.0000     -19.004019      -517.1256
   1   2.0000     -18.990638      -516.7615
   2   2.0000     -18.944660      -515.5104
   3   2.0000     -10.169451      -276.7248
   4   2.0000     -10.099269      -274.8151
   5   2.0000     -10.073364      -274.1102
   6   2.0000     -10.055271      -273.6178
   7   2.0000     -10.048849      -273.4431
   8   2.0000     -10.048420      -273.4314
   9   2.0000     -10.044777      -273.3323
  10   2.0000     -10.039640      -273.1925
  11   2.0000     -10.037004      -273.1208
  12   2.0000     -10.035191      -273.0714
  13   2.0000     -10.034512      -273.0530
  14   2.0000     -10.034372      -273.0491
  15   2.0000     -10.031925      -272.9826
  16   2.0000     -10.020766      -272.6789
  17   2.0000      -1.082147       -29.4467
  18   2.0000      -1.037103       -28.2210
  19   2.0000      -0.987458       -26.8701
  20   2.0000      -0.851333       -23.1660
  21   2.0000      -0.808263       -21.9939
  22   2.0000      -0.767088       -20.8735
  23   2.0000      -0.742902       -20.2154
  24   2.0000      -0.715358       -19.4659
  25   2.0000      -0.690562       -18.7911
  26   2.0000      -0.663666       -18.0593
  27   2.0000      -0.635026       -17.2799
  28   2.0000      -0.601163       -16.3585
  29   2.0000      -0.589457       -16.0399
  30   2.0000      -0.568606       -15.4726
  31   2.0000      -0.552989       -15.0476
  32   2.0000      -0.500332       -13.6147
  33   2.0000      -0.486653       -13.2425
  34   2.0000      -0.484384       -13.1808
  35   2.0000      -0.460922       -12.5423
  36   2.0000      -0.452434       -12.3113
  37   2.0000      -0.437859       -11.9147
  38   2.0000      -0.434093       -11.8123
  39   2.0000      -0.428058       -11.6480
  40   2.0000      -0.415363       -11.3026
  41   2.0000      -0.408216       -11.1081
  42   2.0000      -0.398930       -10.8554
  43   2.0000      -0.389592       -10.6013
  44   2.0000      -0.379092       -10.3156
  45   2.0000      -0.374934       -10.2025
  46   2.0000      -0.370865       -10.0917
  47   2.0000      -0.357324        -9.7233
  48   2.0000      -0.350330        -9.5330
  49   2.0000      -0.341244        -9.2857
  50   2.0000      -0.328861        -8.9488
  51   2.0000      -0.326516        -8.8850
  52   2.0000      -0.315635        -8.5889
  53   2.0000      -0.308513        -8.3951
  54   2.0000      -0.296889        -8.0788
  55   2.0000      -0.293071        -7.9749
  56   2.0000      -0.283566        -7.7162
  57   2.0000      -0.268319        -7.3013
  58   2.0000      -0.248582        -6.7642
  59   2.0000      -0.221824        -6.0361
  60   2.0000      -0.195636        -5.3235
  61   0.0000      -0.067347        -1.8326
  62   0.0000      -0.043545        -1.1849
  63   0.0000      -0.014713        -0.4004
  64   0.0000      -0.006351        -0.1728
  65   0.0000       0.064633         1.7587

MULLIKEN ATOMIC CHARGES
-----------------------
   0 C :   -0.545595
   1 C :   -0.017249
   2 H :    0.183893
   3 C :    0.120180
   4 C :   -0.253625
   5 C :   -0.330937
   6 C :    0.174235
   7 C :   -0.345611
   8 C :    0.350036
   9 C :   -0.349376
  10 C :   -0.297766
  11 C :    0.111190
  12 C :   -0.246151
  13 O :   -0.220338
  14 C :   -0.339474
  15 C :    0.304966
  16 O :   -0.470611
  17 O :   -0.349155
  18 H :    0.171601
  19 H :    0.181022
  20 H :    0.172496
  21 H :    0.180362
  22 H :    0.174517
  23 H :    0.184749
  24 H :    0.185789
  25 H :    0.180433
  26 H :    0.189599
  27 H :    0.172101
  28 H :    0.174798
  29 H :    0.172286
  30 H :    0.381635
Sum of atomic charges:   -0.0000000

LOEWDIN ATOMIC CHARGES
----------------------
   0 C :   -0.376724
   1 C :   -0.141386
   2 H :    0.195742
   3 C :   -0.082573
   4 C :   -0.152876
   5 C :   -0.152267
   6 C :   -0.060657
   7 C :   -0.161453
   8 C :    0.180133
   9 C :   -0.130494
  10 C :   -0.138054
  11 C :   -0.076741
  12 C :   -0.128109
  13 O :   -0.706120
  14 C :   -0.050106
  15 C :    0.361199
  16 O :   -0.481752
  17 O :   -0.391137
  18 H :    0.165350
  19 H :    0.170497
  20 H :    0.165357
  21 H :    0.183720
  22 H :    0.183408
  23 H :    0.193748
  24 H :    0.191392
  25 H :    0.185621
  26 H :    0.193224
  27 H :    0.175316
  28 H :    0.187688
  29 H :    0.175326
  30 H :    0.322729

  Mayer bond orders larger than 0.100000
B(  0-C ,  1-C ) :   0.9020 B(  0-C , 18-H ) :   0.9691 B(  0-C , 19-H ) :   0.9642
B(  0-C , 20-H ) :   0.9696 B(  1-C ,  2-H ) :   0.9630 B(  1-C ,  3-C ) :   0.7791
B(  1-C , 15-C ) :   0.9857 B(  3-C ,  4-C ) :   1.2479 B(  3-C , 12-C ) :   1.4510
B(  4-C ,  5-C ) :   1.4659 B(  4-C , 21-H ) :   0.9502 B(  5-C ,  6-C ) :   1.2149
B(  5-C , 22-H ) :   0.9745 B(  6-C ,  7-C ) :   1.2005 B(  6-C , 11-C ) :   1.4373
B(  7-C ,  8-C ) :   1.4188 B(  7-C , 23-H ) :   0.9073 B(  8-C ,  9-C ) :   1.2154
B(  8-C , 13-O ) :   1.0497 B(  9-C , 10-C ) :   1.4478 B(  9-C , 24-H ) :   0.9557
B( 10-C , 11-C ) :   1.2045 B( 10-C , 25-H ) :   0.9599 B( 11-C , 12-C ) :   1.2246
B( 12-C , 26-H ) :   0.9335 B( 13-O , 14-C ) :   0.8493 B( 14-C , 27-H ) :   0.9549
B( 14-C , 28-H ) :   0.9602 B( 14-C , 29-H ) :   0.9548 B( 15-C , 16-O ) :   1.8762
B( 15-C , 17-O ) :   1.0783 B( 17-O , 30-H ) :   0.8336

Dispersion correction           -0.013103303
FINAL SINGLE POINT ENERGY      -767.461635572008

DIPOLE MOMENT
-------------

Method             : SCF
Type of density    : Electron Density
Multiplicity       :   1
Irrep              :   0
Energy             :  -767.4622292193638486 Eh
Relativity type    :
Basis              : AO
                                X                 Y                 Z
Electronic contribution:     -2.537547036       2.581485195       4.195345058
Nuclear contribution   :      3.220026269      -2.456044425      -4.959586188
                        -----------------------------------------
Total Dipole Moment    :      0.682479233       0.125440770      -0.764241129
                        -----------------------------------------
Magnitude (a.u.)       :      1.032268276
Magnitude (Debye)      :      2.623817440

Rotational constants in cm-1:             0.041893             0.007279             0.006843
Rotational constants in MHz :          1255.913912           218.211347           205.147019

                             ****ORCA TERMINATED NORMALLY****
TOTAL RUN TIME: 0 days 0 hours 1 minutes 47 seconds 788 msec
