                         Program Version 6.0.0  -   RELEASE  -
|  1> ! pbe def2-sv(p) def2/J RI DEFGRID1 loosescf d4 GCP(DFT/SV(P)) printgap
|  2> %output
|  3>     printlevel normal
|  4> end
|  5> * xyz 0 1
|  6> C -2.781662912 -1.1497239983 -0.0884446474
|  7> C -2.5235748313 0.3515580751 -0.0416267446
|  8> C -1.2240428486 0.6772944893 0.6957948988
|  9> C -0.011679123 0.2347274288 -0.0833305489
| 10> O 0.1044482144 0.2961215504 -1.2890825067
| 11> O 0.9355399794 -0.2318150255 0.7234952798
| 12> C 2.1861024535 -0.6444206938 0.1470211192
| 13> C 3.1372424289 0.5331165793 -0.0016104284
| 14> H -3.7148309354 -1.3579819154 -0.6048905125
| 15> H -1.9769543483 -1.6547095114 -0.6194872901
| 16> H -2.8428695492 -1.5595044006 0.9169794489
| 17> H -3.3517846007 0.8498920985 0.4626103104
| 18> H -2.4539022347 0.7410850331 -1.0589155264
| 19> H -1.1936206437 0.208512968 1.6789843192
| 20> H -1.1353488543 1.7584514796 0.8244654259
| 21> H 2.577911509 -1.3859876846 0.8436553567
| 22> H 1.9869249289 -1.1038811224 -0.8259523591
| 23> H 2.7313677476 1.2529485055 -0.7089331069
| 24> H 3.2803061398 1.0215445289 0.9584089245
| 25> H 4.0941746312 0.1784181446 -0.3702421317
| 26> *
| 27>
| 28>                          ****END OF INPUT****

CARTESIAN COORDINATES (ANGSTROEM)
---------------------------------
  C     -2.781663   -1.149724   -0.088445
  C     -2.523575    0.351558   -0.041627
  C     -1.224043    0.677294    0.695795
  C     -0.011679    0.234727   -0.083331
  O      0.104448    0.296122   -1.289083
  O      0.935540   -0.231815    0.723495
  C      2.186102   -0.644421    0.147021
  C      3.137242    0.533117   -0.001610
  H     -3.714831   -1.357982   -0.604891
  H     -1.976954   -1.654710   -0.619487
  H     -2.842870   -1.559504    0.916979
  H     -3.351785    0.849892    0.462610
  H     -2.453902    0.741085   -1.058916
  H     -1.193621    0.208513    1.678984
  H     -1.135349    1.758451    0.824465
  H      2.577912   -1.385988    0.843655
  H      1.986925   -1.103881   -0.825952
  H      2.731368    1.252949   -0.708933
  H      3.280306    1.021545    0.958409
  H      4.094175    0.178418   -0.370242

 Total Charge           Charge          ....    0
 Multiplicity           Mult            ....    1
 Number of Electrons    NEL             ....   64
 Basis Dimension        Dim             ....  136

ORBITAL ENERGIES
----------------

  NO   OCC          E(Eh)            E(eV)
   0   2.0000     -18.797256      -511.4993
   1   2.0000     -18.732535      -509.7382
   2   2.0000     -10.005483      -272.2630
   3   2.0000      -9.946183      -270.6494
   4   2.0000      -9.896566      -269.2993
   5   2.0000      -9.887866      -269.0625
   6   2.0000      -9.886970      -269.0381
   7   2.0000      -9.874403      -268.6962
   8   2.0000      -1.003781       -27.3143
   9   2.0000      -0.909501       -24.7488
  10   2.0000      -0.725853       -19.7515
  11   2.0000      -0.696316       -18.9477
  12   2.0000      -0.636571       -17.3220
  13   2.0000      -0.589827       -16.0500
  14   2.0000      -0.530574       -14.4377
  15   2.0000      -0.491834       -13.3835
  16   2.0000      -0.452562       -12.3148
  17   2.0000      -0.434230       -11.8160
  18   2.0000      -0.422352       -11.4928
  19   2.0000      -0.396979       -10.8023
  20   2.0000      -0.390971       -10.6389
  21   2.0000      -0.373256       -10.1568
  22   2.0000      -0.362938        -9.8761
  23   2.0000      -0.349371        -9.5069
  24   2.0000      -0.337014        -9.1706
  25   2.0000      -0.329080        -8.9547
  26   2.0000      -0.302940        -8.2434
  27   2.0000      -0.297314        -8.0903
  28   2.0000      -0.294991        -8.0271
  29   2.0000      -0.287627        -7.8267
  30   2.0000      -0.256043        -6.9673
  31   2.0000      -0.219255        -5.9662
  32   0.0000      -0.020193        -0.5495
  33   0.0000       0.040607         1.1050
  34   0.0000       0.055213         1.5024
  35   0.0000       0.078196         2.1278
  36   0.0000       0.083066         2.2603

MULLIKEN ATOMIC CHARGES
-----------------------
   0 C :   -0.291103
   1 C :   -0.184330
   2 C :   -0.140484
   3 C :    0.096809
   4 O :   -0.211105
   5 O :   -0.235325
   6 C :   -0.013851
   7 C :   -0.304009
   8 H :    0.106652
   9 H :    0.115485
  10 H :    0.096835
  11 H :    0.087045
  12 H :    0.106717
  13 H :    0.095796
  14 H :    0.115787
  15 H :    0.101060
  16 H :    0.107417
  17 H :    0.125876
  18 H :    0.112686
  19 H :    0.112040
Sum of atomic charges:   -0.0000000

LOEWDIN ATOMIC CHARGES
----------------------
   0 C :   -0.342383
   1 C :   -0.230254
   2 C :   -0.249192
   3 C :    0.038235
   4 O :   -0.172304
   5 O :   -0.067645
   6 C :   -0.113614
   7 C :   -0.356208
   8 H :    0.121268
   9 H :    0.121082
  10 H :    0.115885
  11 H :    0.117327
  12 H :    0.125267
  13 H :    0.128688
  14 H :    0.144046
  15 H :    0.116691
  16 H :    0.118893
  17 H :    0.130090
  18 H :    0.124075
  19 H :    0.130052

  Mayer bond orders larger than 0.100000
B(  0-C ,  1-C ) :   1.1548 B(  0-C ,  8-H ) :   0.9529 B(  0-C ,  9-H ) :   0.9515
B(  0-C , 10-H ) :   0.9539 B(  1-C ,  2-C ) :   1.1132 B(  1-C , 11-H ) :   0.9261
B(  1-C , 12-H ) :   0.9166 B(  2-C ,  3-C ) :   1.0184 B(  2-C , 13-H ) :   0.9105
B(  2-C , 14-H ) :   0.8893 B(  3-C ,  4-O ) :   2.0294 B(  3-C ,  5-O ) :   1.2201
B(  5-O ,  6-C ) :   0.9238 B(  6-C ,  7-C ) :   1.1727 B(  6-C , 15-H ) :   0.9373
B(  6-C , 16-H ) :   0.9137 B(  7-C , 17-H ) :   0.9465 B(  7-C , 18-H ) :   0.9493
B(  7-C , 19-H ) :   0.9446

Dispersion correction           -0.015156601
FINAL SINGLE POINT ENERGY      -385.459070208842

DIPOLE MOMENT
-------------

Method             : SCF
Type of density    : Electron Density
Multiplicity       :   1
Irrep              :   0
Energy             :  -385.5341414575264025 Eh
Relativity type    :
Basis              : AO
                                X                 Y                 Z
Electronic contribution:      2.128313059       0.920509140      -0.804913944
Nuclear contribution   :     -1.859623435      -0.985258428       1.395751395
                        -----------------------------------------
Total Dipole Moment    :      0.268689625      -0.064749288       0.590837451
                        -----------------------------------------
Magnitude (a.u.)       :      0.652284814
Magnitude (Debye)      :      1.657976235

Rotational constants in cm-1:             0.167586             0.032482             0.032205
Rotational constants in MHz :          5024.110800           973.773820           965.486880

                             ****ORCA TERMINATED NORMALLY****
TOTAL RUN TIME: 0 days 0 hours 0 minutes 10 seconds 667 msec
