                         Program Version 6.0.0  -   RELEASE  -
|  1> ! pbe def2-sv(p) def2/J RI DEFGRID1 loosescf d4 GCP(DFT/SV(P)) printgap
|  2> %output
|  3>     printlevel normal
|  4> end
|  5> * xyz 0 1
|  6> C -3.9307960811 0.0710689031 -0.2941808805
|  7> C -2.6986339022 -0.2431419853 0.5456161335
|  8> C -1.4095965099 0.0676454423 -0.210757171
|  9> C -0.1725765103 -0.242941208 0.62666918
| 10> C 1.1063319894 0.0362195104 -0.1179524059
| 11> O 1.1841203463 0.3801501666 -1.2778097504
| 12> O 2.1636865723 -0.1537711686 0.6669921637
| 13> C 3.4732979965 0.0546779993 0.1280094635
| 14> H -3.9273694455 -0.5166348092 -1.2091615328
| 15> H -4.8383409494 -0.1569792688 0.2587657682
| 16> H -3.9477800608 1.1239156173 -0.5658667504
| 17> H -2.7276353588 0.3440433846 1.4655302506
| 18> H -2.7088113646 -1.2990099095 0.8229542869
| 19> H -1.3930603951 1.1213622083 -0.4963081285
| 20> H -1.3708522372 -0.5152607991 -1.1331113183
| 21> H -0.1600268904 -1.2953168693 0.9183034141
| 22> H -0.1623255987 0.3469716166 1.5447826626
| 23> H 4.0872773154 -0.7792435036 0.4589938637
| 24> H 3.8636577309 0.9933383743 0.5193251637
| 25> H 3.4238979711 0.0956069959 -0.9606223874
| 26> *
| 27>
| 28>                          ****END OF INPUT****

CARTESIAN COORDINATES (ANGSTROEM)
---------------------------------
  C     -3.930796    0.071069   -0.294181
  C     -2.698634   -0.243142    0.545616
  C     -1.409597    0.067645   -0.210757
  C     -0.172577   -0.242941    0.626669
  C      1.106332    0.036220   -0.117952
  O      1.184120    0.380150   -1.277810
  O      2.163687   -0.153771    0.666992
  C      3.473298    0.054678    0.128009
  H     -3.927369   -0.516635   -1.209162
  H     -4.838341   -0.156979    0.258766
  H     -3.947780    1.123916   -0.565867
  H     -2.727635    0.344043    1.465530
  H     -2.708811   -1.299010    0.822954
  H     -1.393060    1.121362   -0.496308
  H     -1.370852   -0.515261   -1.133111
  H     -0.160027   -1.295317    0.918303
  H     -0.162326    0.346972    1.544783
  H      4.087277   -0.779244    0.458994
  H      3.863658    0.993338    0.519325
  H      3.423898    0.095607   -0.960622

 Total Charge           Charge          ....    0
 Multiplicity           Mult            ....    1
 Number of Electrons    NEL             ....   64
 Basis Dimension        Dim             ....  136

ORBITAL ENERGIES
----------------

  NO   OCC          E(Eh)            E(eV)
   0   2.0000     -18.796128      -511.4686
   1   2.0000     -18.735061      -509.8069
   2   2.0000     -10.003555      -272.2106
   3   2.0000      -9.937845      -270.4225
   4   2.0000      -9.896158      -269.2882
   5   2.0000      -9.884714      -268.9768
   6   2.0000      -9.883707      -268.9493
   7   2.0000      -9.872994      -268.6578
   8   2.0000      -1.002172       -27.2705
   9   2.0000      -0.909552       -24.7502
  10   2.0000      -0.728068       -19.8117
  11   2.0000      -0.686001       -18.6670
  12   2.0000      -0.645538       -17.5660
  13   2.0000      -0.575433       -15.6583
  14   2.0000      -0.519779       -14.1439
  15   2.0000      -0.498379       -13.5616
  16   2.0000      -0.444949       -12.1077
  17   2.0000      -0.444213       -12.0876
  18   2.0000      -0.420958       -11.4549
  19   2.0000      -0.411711       -11.2032
  20   2.0000      -0.385494       -10.4898
  21   2.0000      -0.378714       -10.3053
  22   2.0000      -0.370128       -10.0717
  23   2.0000      -0.341103        -9.2819
  24   2.0000      -0.336969        -9.1694
  25   2.0000      -0.309178        -8.4132
  26   2.0000      -0.301912        -8.2154
  27   2.0000      -0.294971        -8.0266
  28   2.0000      -0.286134        -7.7861
  29   2.0000      -0.285005        -7.7554
  30   2.0000      -0.254504        -6.9254
  31   2.0000      -0.220959        -6.0126
  32   0.0000      -0.016496        -0.4489
  33   0.0000       0.036612         0.9963
  34   0.0000       0.055649         1.5143
  35   0.0000       0.068242         1.8570
  36   0.0000       0.073000         1.9864

MULLIKEN ATOMIC CHARGES
-----------------------
   0 C :   -0.254845
   1 C :   -0.175624
   2 C :   -0.196907
   3 C :   -0.160831
   4 C :    0.126555
   5 O :   -0.203087
   6 O :   -0.246177
   7 C :   -0.128220
   8 H :    0.098658
   9 H :    0.101019
  10 H :    0.098250
  11 H :    0.081183
  12 H :    0.081116
  13 H :    0.092412
  14 H :    0.095243
  15 H :    0.109270
  16 H :    0.107608
  17 H :    0.121387
  18 H :    0.120644
  19 H :    0.132344
Sum of atomic charges:    0.0000000

LOEWDIN ATOMIC CHARGES
----------------------
   0 C :   -0.339134
   1 C :   -0.233690
   2 C :   -0.223540
   3 C :   -0.249681
   4 C :    0.038520
   5 O :   -0.166440
   6 O :   -0.080669
   7 C :   -0.208260
   8 H :    0.117874
   9 H :    0.118292
  10 H :    0.117683
  11 H :    0.113210
  12 H :    0.113270
  13 H :    0.120454
  14 H :    0.121623
  15 H :    0.139974
  16 H :    0.137632
  17 H :    0.120122
  18 H :    0.119186
  19 H :    0.123575

  Mayer bond orders larger than 0.100000
B(  0-C ,  1-C ) :   1.1630 B(  0-C ,  8-H ) :   0.9541 B(  0-C ,  9-H ) :   0.9531
B(  0-C , 10-H ) :   0.9542 B(  1-C ,  2-C ) :   1.1307 B(  1-C , 11-H ) :   0.9239
B(  1-C , 12-H ) :   0.9243 B(  2-C ,  3-C ) :   1.1323 B(  2-C , 13-H ) :   0.9253
B(  2-C , 14-H ) :   0.9215 B(  3-C ,  4-C ) :   1.0079 B(  3-C , 15-H ) :   0.8921
B(  3-C , 16-H ) :   0.8986 B(  4-C ,  5-O ) :   2.0662 B(  4-C ,  6-O ) :   1.2119
B(  6-O ,  7-C ) :   0.9371 B(  7-C , 17-H ) :   0.9614 B(  7-C , 18-H ) :   0.9608
B(  7-C , 19-H ) :   0.9314

Dispersion correction           -0.014369694
FINAL SINGLE POINT ENERGY      -385.453107344281

DIPOLE MOMENT
-------------

Method             : SCF
Type of density    : Electron Density
Multiplicity       :   1
Irrep              :   0
Energy             :  -385.5285146210891298 Eh
Relativity type    :
Basis              : AO
                                X                 Y                 Z
Electronic contribution:      9.459906362       0.322248141      -0.904482073
Nuclear contribution   :     -9.201966426      -0.500632897       1.514136349
                        -----------------------------------------
Total Dipole Moment    :      0.257939936      -0.178384756       0.609654276
                        -----------------------------------------
Magnitude (a.u.)       :      0.685589139
Magnitude (Debye)      :      1.742629102

Rotational constants in cm-1:             0.252116             0.024801             0.023073
Rotational constants in MHz :          7558.259777           743.526976           691.724541

                             ****ORCA TERMINATED NORMALLY****
TOTAL RUN TIME: 0 days 0 hours 0 minutes 9 seconds 493 msec
