                         Program Version 6.0.0  -   RELEASE  -
|  1> ! r2scan-3c def2/J RI DEFGRID2 scfconv6 printgap
|  2> %output
|  3>     printlevel normal
|  4> end
|  5> * xyz 0 1
|  6> C -2.5959908879 -1.2660629508 -0.0163209456
|  7> C -2.5218945082 0.2560010669 -0.0079514782
|  8> C -1.2487576261 0.7548839786 0.6837355808
|  9> C -0.0264248521 0.3795591632 -0.1143871182
| 10> O 0.1507011483 0.6595202817 -1.2818500318
| 11> O 0.8387658054 -0.3135910023 0.6155532287
| 12> C 2.0737630371 -0.7303623785 0.0097053874
| 13> C 3.1467127595 0.3358104434 0.1688223634
| 14> H -3.5163099332 -1.5979667958 -0.48930544
| 15> H -1.7569568589 -1.6846705716 -0.5692197971
| 16> H -2.5671171823 -1.6556861458 0.9984200567
| 17> H -3.3882758905 0.662440231 0.5143329826
| 18> H -2.5309125627 0.6304082196 -1.0334054776
| 19> H -1.1555222463 0.3334248762 1.683768264
| 20> H -1.2750613101 1.8438527904 0.7487817177
| 21> H 2.3439393944 -1.6469524813 0.5350678523
| 22> H 1.8903098721 -0.9382083213 -1.0489744416
| 23> H 3.2800900942 0.5777953343 1.219697014
| 24> H 4.0832154684 -0.0328867239 -0.2366624408
| 25> H 2.8594191608 1.2367550656 -0.3687906422
| 26> *
| 27>
| 28>                          ****END OF INPUT****

CARTESIAN COORDINATES (ANGSTROEM)
---------------------------------
  C     -2.595991   -1.266063   -0.016321
  C     -2.521895    0.256001   -0.007951
  C     -1.248758    0.754884    0.683736
  C     -0.026425    0.379559   -0.114387
  O      0.150701    0.659520   -1.281850
  O      0.838766   -0.313591    0.615553
  C      2.073763   -0.730362    0.009705
  C      3.146713    0.335810    0.168822
  H     -3.516310   -1.597967   -0.489305
  H     -1.756957   -1.684671   -0.569220
  H     -2.567117   -1.655686    0.998420
  H     -3.388276    0.662440    0.514333
  H     -2.530913    0.630408   -1.033405
  H     -1.155522    0.333425    1.683768
  H     -1.275061    1.843853    0.748782
  H      2.343939   -1.646952    0.535068
  H      1.890310   -0.938208   -1.048974
  H      3.280090    0.577795    1.219697
  H      4.083215   -0.032887   -0.236662
  H      2.859419    1.236755   -0.368791

 Total Charge           Charge          ....    0
 Multiplicity           Mult            ....    1
 Number of Electrons    NEL             ....   64
 Basis Dimension        Dim             ....  222

ORBITAL ENERGIES
----------------

  NO   OCC          E(Eh)            E(eV)
   0   2.0000     -18.996715      -516.9269
   1   2.0000     -18.927282      -515.0375
   2   2.0000     -10.151229      -276.2290
   3   2.0000     -10.090523      -274.5771
   4   2.0000     -10.039985      -273.2019
   5   2.0000     -10.033736      -273.0318
   6   2.0000     -10.029016      -272.9034
   7   2.0000     -10.019071      -272.6328
   8   2.0000      -1.070967       -29.1425
   9   2.0000      -0.975135       -26.5348
  10   2.0000      -0.772756       -21.0278
  11   2.0000      -0.739264       -20.1164
  12   2.0000      -0.677549       -18.4370
  13   2.0000      -0.624504       -16.9936
  14   2.0000      -0.565388       -15.3850
  15   2.0000      -0.519698       -14.1417
  16   2.0000      -0.473836       -12.8937
  17   2.0000      -0.455076       -12.3832
  18   2.0000      -0.440448       -11.9852
  19   2.0000      -0.417677       -11.3656
  20   2.0000      -0.412284       -11.2188
  21   2.0000      -0.390455       -10.6248
  22   2.0000      -0.375883       -10.2283
  23   2.0000      -0.365677        -9.9506
  24   2.0000      -0.351364        -9.5611
  25   2.0000      -0.344134        -9.3644
  26   2.0000      -0.317088        -8.6284
  27   2.0000      -0.310037        -8.4365
  28   2.0000      -0.308658        -8.3990
  29   2.0000      -0.302658        -8.2357
  30   2.0000      -0.270835        -7.3698
  31   2.0000      -0.235973        -6.4212
  32   0.0000      -0.015121        -0.4115
  33   0.0000       0.074793         2.0352
  34   0.0000       0.093684         2.5493
  35   0.0000       0.109601         2.9824
  36   0.0000       0.116977         3.1831

MULLIKEN ATOMIC CHARGES
-----------------------
   0 C :   -0.492719
   1 C :   -0.220235
   2 C :   -0.300147
   3 C :    0.350024
   4 O :   -0.429234
   5 O :   -0.173518
   6 C :   -0.141313
   7 C :   -0.465700
   8 H :    0.148471
   9 H :    0.156339
  10 H :    0.146427
  11 H :    0.144603
  12 H :    0.162161
  13 H :    0.164727
  14 H :    0.164776
  15 H :    0.147457
  16 H :    0.169856
  17 H :    0.151656
  18 H :    0.146847
  19 H :    0.169522
Sum of atomic charges:   -0.0000000

LOEWDIN ATOMIC CHARGES
----------------------
   0 C :   -0.416637
   1 C :   -0.292827
   2 C :   -0.231819
   3 C :    0.355046
   4 O :   -0.438745
   5 O :   -0.596083
   6 C :    0.026228
   7 C :   -0.389690
   8 H :    0.152695
   9 H :    0.155740
  10 H :    0.150700
  11 H :    0.152776
  12 H :    0.167373
  13 H :    0.177012
  14 H :    0.181189
  15 H :    0.177538
  16 H :    0.189009
  17 H :    0.157134
  18 H :    0.159104
  19 H :    0.164257

  Mayer bond orders larger than 0.100000
B(  0-C ,  1-C ) :   0.9046 B(  0-C ,  8-H ) :   0.9689 B(  0-C ,  9-H ) :   0.9730
B(  0-C , 10-H ) :   0.9815 B(  1-C ,  2-C ) :   0.8868 B(  1-C , 11-H ) :   0.9659
B(  1-C , 12-H ) :   0.9684 B(  2-C ,  3-C ) :   0.9400 B(  2-C , 13-H ) :   1.0055
B(  2-C , 14-H ) :   0.9365 B(  3-C ,  4-O ) :   1.8305 B(  3-C ,  5-O ) :   1.0489
B(  5-O ,  6-C ) :   0.8176 B(  6-C ,  7-C ) :   0.9403 B(  6-C , 15-H ) :   0.9606
B(  6-C , 16-H ) :   0.9664 B(  7-C , 17-H ) :   0.9735 B(  7-C , 18-H ) :   0.9657
B(  7-C , 19-H ) :   0.9715

Dispersion correction           -0.005135553
FINAL SINGLE POINT ENERGY      -386.236503526267

DIPOLE MOMENT
-------------

Method             : SCF
Type of density    : Electron Density
Multiplicity       :   1
Irrep              :   0
Energy             :  -386.2431049764226145 Eh
Relativity type    :
Basis              : AO
                                X                 Y                 Z
Electronic contribution:      1.777200507       1.859353797      -1.171601185
Nuclear contribution   :     -1.611341649      -2.126098654       1.823025371
                        -----------------------------------------
Total Dipole Moment    :      0.165858859      -0.266744857       0.651424186
                        -----------------------------------------
Magnitude (a.u.)       :      0.723198070
Magnitude (Debye)      :      1.838223409

Rotational constants in cm-1:             0.153209             0.034289             0.032849
Rotational constants in MHz :          4593.094184          1027.958043           984.777646

                             ****ORCA TERMINATED NORMALLY****
TOTAL RUN TIME: 0 days 0 hours 0 minutes 33 seconds 159 msec
