                         Program Version 6.0.0  -   RELEASE  -
|  1> ! r2scan-3c def2/J RI DEFGRID2 scfconv6 printgap
|  2> %output
|  3>     printlevel normal
|  4> end
|  5> %cpcm
|  6>     smd true
|  7>     smdsolvent "water"
|  8> end
|  9> * xyz 0 1
| 10> C -2.5959908879 -1.2660629508 -0.0163209456
| 11> C -2.5218945082 0.2560010669 -0.0079514782
| 12> C -1.2487576261 0.7548839786 0.6837355808
| 13> C -0.0264248521 0.3795591632 -0.1143871182
| 14> O 0.1507011483 0.6595202817 -1.2818500318
| 15> O 0.8387658054 -0.3135910023 0.6155532287
| 16> C 2.0737630371 -0.7303623785 0.0097053874
| 17> C 3.1467127595 0.3358104434 0.1688223634
| 18> H -3.5163099332 -1.5979667958 -0.48930544
| 19> H -1.7569568589 -1.6846705716 -0.5692197971
| 20> H -2.5671171823 -1.6556861458 0.9984200567
| 21> H -3.3882758905 0.662440231 0.5143329826
| 22> H -2.5309125627 0.6304082196 -1.0334054776
| 23> H -1.1555222463 0.3334248762 1.683768264
| 24> H -1.2750613101 1.8438527904 0.7487817177
| 25> H 2.3439393944 -1.6469524813 0.5350678523
| 26> H 1.8903098721 -0.9382083213 -1.0489744416
| 27> H 3.2800900942 0.5777953343 1.219697014
| 28> H 4.0832154684 -0.0328867239 -0.2366624408
| 29> H 2.8594191608 1.2367550656 -0.3687906422
| 30> *
| 31>
| 32>                          ****END OF INPUT****

CARTESIAN COORDINATES (ANGSTROEM)
---------------------------------
  C     -2.595991   -1.266063   -0.016321
  C     -2.521895    0.256001   -0.007951
  C     -1.248758    0.754884    0.683736
  C     -0.026425    0.379559   -0.114387
  O      0.150701    0.659520   -1.281850
  O      0.838766   -0.313591    0.615553
  C      2.073763   -0.730362    0.009705
  C      3.146713    0.335810    0.168822
  H     -3.516310   -1.597967   -0.489305
  H     -1.756957   -1.684671   -0.569220
  H     -2.567117   -1.655686    0.998420
  H     -3.388276    0.662440    0.514333
  H     -2.530913    0.630408   -1.033405
  H     -1.155522    0.333425    1.683768
  H     -1.275061    1.843853    0.748782
  H      2.343939   -1.646952    0.535068
  H      1.890310   -0.938208   -1.048974
  H      3.280090    0.577795    1.219697
  H      4.083215   -0.032887   -0.236662
  H      2.859419    1.236755   -0.368791

 Total Charge           Charge          ....    0
 Multiplicity           Mult            ....    1
 Number of Electrons    NEL             ....   64
 Basis Dimension        Dim             ....  222

ORBITAL ENERGIES
----------------

  NO   OCC          E(Eh)            E(eV)
   0   2.0000     -19.002889      -517.0949
   1   2.0000     -18.943219      -515.4712
   2   2.0000     -10.162158      -276.5264
   3   2.0000     -10.082937      -274.3707
   4   2.0000     -10.034849      -273.0621
   5   2.0000     -10.028101      -272.8785
   6   2.0000     -10.018462      -272.6162
   7   2.0000     -10.011491      -272.4265
   8   2.0000      -1.078709       -29.3532
   9   2.0000      -0.988977       -26.9114
  10   2.0000      -0.769033       -20.9265
  11   2.0000      -0.732867       -19.9423
  12   2.0000      -0.672399       -18.2969
  13   2.0000      -0.619534       -16.8584
  14   2.0000      -0.559564       -15.2265
  15   2.0000      -0.518661       -14.1135
  16   2.0000      -0.474164       -12.9026
  17   2.0000      -0.461574       -12.5601
  18   2.0000      -0.441157       -12.0045
  19   2.0000      -0.421252       -11.4628
  20   2.0000      -0.406780       -11.0691
  21   2.0000      -0.386085       -10.5059
  22   2.0000      -0.369146       -10.0450
  23   2.0000      -0.361713        -9.8427
  24   2.0000      -0.350503        -9.5377
  25   2.0000      -0.340446        -9.2640
  26   2.0000      -0.310640        -8.4529
  27   2.0000      -0.305049        -8.3008
  28   2.0000      -0.303514        -8.2590
  29   2.0000      -0.300746        -8.1837
  30   2.0000      -0.278524        -7.5790
  31   2.0000      -0.252265        -6.8645
  32   0.0000      -0.023341        -0.6351
  33   0.0000       0.076758         2.0887
  34   0.0000       0.100972         2.7476
  35   0.0000       0.118367         3.2209
  36   0.0000       0.125050         3.4028

MULLIKEN ATOMIC CHARGES
-----------------------
   0 C :   -0.529623
   1 C :   -0.226715
   2 C :   -0.316190
   3 C :    0.390075
   4 O :   -0.512649
   5 O :   -0.195167
   6 C :   -0.145649
   7 C :   -0.491702
   8 H :    0.161400
   9 H :    0.162752
  10 H :    0.162417
  11 H :    0.163891
  12 H :    0.155557
  13 H :    0.179663
  14 H :    0.193210
  15 H :    0.173397
  16 H :    0.172559
  17 H :    0.165331
  18 H :    0.170123
  19 H :    0.167321
Sum of atomic charges:    0.0000000

LOEWDIN ATOMIC CHARGES
----------------------
   0 C :   -0.423785
   1 C :   -0.292117
   2 C :   -0.228881
   3 C :    0.364707
   4 O :   -0.497638
   5 O :   -0.599057
   6 C :    0.031123
   7 C :   -0.392573
   8 H :    0.156143
   9 H :    0.156154
  10 H :    0.155846
  11 H :    0.160369
  12 H :    0.163351
  13 H :    0.184429
  14 H :    0.191290
  15 H :    0.188914
  16 H :    0.190027
  17 H :    0.161905
  18 H :    0.167721
  19 H :    0.162074

  Mayer bond orders larger than 0.100000
B(  0-C ,  1-C ) :   0.8968 B(  0-C ,  8-H ) :   0.9657 B(  0-C ,  9-H ) :   0.9708
B(  0-C , 10-H ) :   0.9781 B(  1-C ,  2-C ) :   0.8732 B(  1-C , 11-H ) :   0.9617
B(  1-C , 12-H ) :   0.9727 B(  2-C ,  3-C ) :   0.9438 B(  2-C , 13-H ) :   0.9952
B(  2-C , 14-H ) :   0.9293 B(  3-C ,  4-O ) :   1.7618 B(  3-C ,  5-O ) :   1.0718
B(  5-O ,  6-C ) :   0.8001 B(  6-C ,  7-C ) :   0.9390 B(  6-C , 15-H ) :   0.9513
B(  6-C , 16-H ) :   0.9625 B(  7-C , 17-H ) :   0.9698 B(  7-C , 18-H ) :   0.9606
B(  7-C , 19-H ) :   0.9688

Dispersion correction           -0.005135553
FINAL SINGLE POINT ENERGY      -386.241457355019

DIPOLE MOMENT
-------------

Method             : SCF
Type of density    : Electron Density
Multiplicity       :   1
Irrep              :   0
Energy             :  -386.2480588051748214 Eh
Relativity type    :
Basis              : AO
                                X                 Y                 Z
Electronic contribution:      1.812548572       1.741414592      -0.831848133
Nuclear contribution   :     -1.611341649      -2.126098654       1.823025371
                        -----------------------------------------
Total Dipole Moment    :      0.201206923      -0.384684062       0.991177238
                        -----------------------------------------
Magnitude (a.u.)       :      1.082080575
Magnitude (Debye)      :      2.750430242

Rotational constants in cm-1:             0.153209             0.034289             0.032849
Rotational constants in MHz :          4593.094184          1027.958043           984.777646

                             ****ORCA TERMINATED NORMALLY****
TOTAL RUN TIME: 0 days 0 hours 0 minutes 39 seconds 128 msec
