                         Program Version 6.0.0  -   RELEASE  -
|  1> ! pbe def2-sv(p) def2/J RI DEFGRID1 loosescf d4 GCP(DFT/SV(P)) printgap
|  2> %output
|  3>     printlevel normal
|  4> end
|  5> * xyz 0 1
|  6> C -4.6203302258 -1.1639163856 -0.0566853347
|  7> C -3.8277933848 -2.3014205818 -0.1238157939
|  8> C -2.4500727208 -2.1859571656 -0.1272128109
|  9> C -1.8398049142 -0.9350267018 -0.063080779
| 10> C -2.6404782882 0.2109006926 0.0040370167
| 11> C -4.0284372074 0.0833869053 0.006205025
| 12> C -2.0366282467 1.5477427731 0.0720083185
| 13> O -2.7279226345 2.5631309733 0.1215337187
| 14> C -0.564635977 1.6127984277 0.0792911772
| 15> C 0.0075147664 2.8709703531 0.1572392009
| 16> C 1.3925048734 3.0166660624 0.1731588568
| 17> C 2.200998566 1.9137475622 0.1098845669
| 18> C 1.6606395247 0.6069577356 0.0265004793
| 19> C 0.2404265866 0.4514247049 0.0115592767
| 20> C -0.365414205 -0.8599614276 -0.0682225286
| 21> O 0.2906703333 -1.9144746018 -0.1393052292
| 22> N 2.4670716009 -0.4579612013 -0.0404590813
| 23> C 3.9077360611 -0.4295299945 -0.0180308657
| 24> C 4.4475905126 -1.8642247731 -0.0694108637
| 25> O 5.8509642434 -1.9099287339 0.0189082598
| 26> H -5.6953693584 -1.2510059541 -0.0535535454
| 27> H -4.2848249145 -3.2772571374 -0.1731685585
| 28> H -1.8161024516 -3.0586785291 -0.1788845457
| 29> H -4.6201326207 0.9853316343 0.0587434554
| 30> H -0.64609431 3.7282238796 0.2059430683
| 31> H 1.824867804 4.002840664 0.2355533276
| 32> H 3.27084489 2.0344408887 0.1241738593
| 33> H 2.0032493634 -1.3622277795 -0.0914393077
| 34> H 4.27237828 0.048688631 0.898691052
| 35> H 4.2869393299 0.1347889843 -0.8791661959
| 36> H 4.0969897648 -2.3603360023 -0.9833221078
| 37> H 4.0806207085 -2.4266103082 0.7923585803
| 38> H 6.238851727 -1.4931609629 -0.7633862343
| 39> *
| 40>
| 41>                          ****END OF INPUT****

CARTESIAN COORDINATES (ANGSTROEM)
---------------------------------
  C     -4.620330   -1.163916   -0.056685
  C     -3.827793   -2.301421   -0.123816
  C     -2.450073   -2.185957   -0.127213
  C     -1.839805   -0.935027   -0.063081
  C     -2.640478    0.210901    0.004037
  C     -4.028437    0.083387    0.006205
  C     -2.036628    1.547743    0.072008
  O     -2.727923    2.563131    0.121534
  C     -0.564636    1.612798    0.079291
  C      0.007515    2.870970    0.157239
  C      1.392505    3.016666    0.173159
  C      2.200999    1.913748    0.109885
  C      1.660640    0.606958    0.026500
  C      0.240427    0.451425    0.011559
  C     -0.365414   -0.859961   -0.068223
  O      0.290670   -1.914475   -0.139305
  N      2.467072   -0.457961   -0.040459
  C      3.907736   -0.429530   -0.018031
  C      4.447591   -1.864225   -0.069411
  O      5.850964   -1.909929    0.018908
  H     -5.695369   -1.251006   -0.053554
  H     -4.284825   -3.277257   -0.173169
  H     -1.816102   -3.058679   -0.178885
  H     -4.620133    0.985332    0.058743
  H     -0.646094    3.728224    0.205943
  H      1.824868    4.002841    0.235553
  H      3.270845    2.034441    0.124174
  H      2.003249   -1.362228   -0.091439
  H      4.272378    0.048689    0.898691
  H      4.286939    0.134789   -0.879166
  H      4.096990   -2.360336   -0.983322
  H      4.080621   -2.426610    0.792359
  H      6.238852   -1.493161   -0.763386

 Total Charge           Charge          ....    0
 Multiplicity           Mult            ....    1
 Number of Electrons    NEL             ....  140
 Basis Dimension        Dim             ....  306

ORBITAL ENERGIES
----------------

  NO   OCC          E(Eh)            E(eV)
   0   2.0000     -18.761232      -510.5191
   1   2.0000     -18.749308      -510.1946
   2   2.0000     -18.742855      -510.0190
   3   2.0000     -14.020708      -381.5229
   4   2.0000      -9.978045      -271.5164
   5   2.0000      -9.974306      -271.4147
   6   2.0000      -9.958893      -270.9953
   7   2.0000      -9.950431      -270.7650
   8   2.0000      -9.938299      -270.4349
   9   2.0000      -9.913708      -269.7657
  10   2.0000      -9.912331      -269.7282
  11   2.0000      -9.912131      -269.7228
  12   2.0000      -9.911411      -269.7032
  13   2.0000      -9.909901      -269.6621
  14   2.0000      -9.908867      -269.6340
  15   2.0000      -9.908139      -269.6142
  16   2.0000      -9.906764      -269.5768
  17   2.0000      -9.904985      -269.5283
  18   2.0000      -9.904336      -269.5107
  19   2.0000      -9.895417      -269.2680
  20   2.0000      -0.941386       -25.6164
  21   2.0000      -0.938028       -25.5250
  22   2.0000      -0.935349       -25.4521
  23   2.0000      -0.875129       -23.8135
  24   2.0000      -0.797188       -21.6926
  25   2.0000      -0.782448       -21.2915
  26   2.0000      -0.725467       -19.7410
  27   2.0000      -0.706268       -19.2185
  28   2.0000      -0.688166       -18.7260
  29   2.0000      -0.684147       -18.6166
  30   2.0000      -0.653147       -17.7730
  31   2.0000      -0.609829       -16.5943
  32   2.0000      -0.597664       -16.2633
  33   2.0000      -0.585752       -15.9391
  34   2.0000      -0.567777       -15.4500
  35   2.0000      -0.540964       -14.7204
  36   2.0000      -0.524098       -14.2614
  37   2.0000      -0.497643       -13.5416
  38   2.0000      -0.491746       -13.3811
  39   2.0000      -0.478415       -13.0183
  40   2.0000      -0.460740       -12.5374
  41   2.0000      -0.446501       -12.1499
  42   2.0000      -0.435547       -11.8518
  43   2.0000      -0.431398       -11.7389
  44   2.0000      -0.426186       -11.5971
  45   2.0000      -0.415242       -11.2993
  46   2.0000      -0.410629       -11.1738
  47   2.0000      -0.400726       -10.9043
  48   2.0000      -0.388428       -10.5697
  49   2.0000      -0.383735       -10.4419
  50   2.0000      -0.378537       -10.3005
  51   2.0000      -0.374688       -10.1958
  52   2.0000      -0.369188       -10.0461
  53   2.0000      -0.363138        -9.8815
  54   2.0000      -0.357544        -9.7293
  55   2.0000      -0.346174        -9.4199
  56   2.0000      -0.339074        -9.2267
  57   2.0000      -0.331234        -9.0133
  58   2.0000      -0.321413        -8.7461
  59   2.0000      -0.317028        -8.6268
  60   2.0000      -0.308613        -8.3978
  61   2.0000      -0.292724        -7.9654
  62   2.0000      -0.280591        -7.6353
  63   2.0000      -0.249731        -6.7955
  64   2.0000      -0.242419        -6.5966
  65   2.0000      -0.240958        -6.5568
  66   2.0000      -0.235078        -6.3968
  67   2.0000      -0.218406        -5.9431
  68   2.0000      -0.205727        -5.5981
  69   2.0000      -0.190335        -5.1793
  70   0.0000      -0.126554        -3.4437
  71   0.0000      -0.078738        -2.1426
  72   0.0000      -0.051698        -1.4068
  73   0.0000      -0.031299        -0.8517
  74   0.0000       0.010864         0.2956

MULLIKEN ATOMIC CHARGES
-----------------------
   0 C :   -0.021013
   1 C :   -0.016905
   2 C :   -0.133270
   3 C :    0.050427
   4 C :    0.037636
   5 C :   -0.125622
   6 C :    0.085995
   7 O :   -0.150085
   8 C :    0.020504
   9 C :   -0.139747
  10 C :   -0.003611
  11 C :   -0.164042
  12 C :    0.079436
  13 C :    0.050288
  14 C :    0.073856
  15 O :   -0.218959
  16 N :   -0.258440
  17 C :   -0.082233
  18 C :   -0.013077
  19 O :   -0.426308
  20 H :    0.062798
  21 H :    0.062370
  22 H :    0.058877
  23 H :    0.058463
  24 H :    0.055644
  25 H :    0.060047
  26 H :    0.043192
  27 H :    0.251243
  28 H :    0.111184
  29 H :    0.088469
  30 H :    0.094118
  31 H :    0.109301
  32 H :    0.299465
Sum of atomic charges:   -0.0000000

LOEWDIN ATOMIC CHARGES
----------------------
   0 C :   -0.107591
   1 C :   -0.104961
   2 C :   -0.088407
   3 C :   -0.044867
   4 C :   -0.053361
   5 C :   -0.082826
   6 C :    0.058820
   7 O :   -0.130679
   8 C :   -0.044660
   9 C :   -0.111279
  10 C :   -0.095305
  11 C :   -0.147462
  12 C :    0.035140
  13 C :   -0.089469
  14 C :    0.057283
  15 O :   -0.177993
  16 N :   -0.135440
  17 C :   -0.180431
  18 C :   -0.128163
  19 O :   -0.329847
  20 H :    0.128857
  21 H :    0.128702
  22 H :    0.135021
  23 H :    0.135935
  24 H :    0.135016
  25 H :    0.129891
  26 H :    0.129382
  27 H :    0.241091
  28 H :    0.119567
  29 H :    0.108945
  30 H :    0.102399
  31 H :    0.121099
  32 H :    0.285595

  Mayer bond orders larger than 0.100000
B(  0-C ,  1-C ) :   1.3278 B(  0-C ,  5-C ) :   1.3360 B(  0-C , 20-H ) :   0.9668
B(  1-C ,  2-C ) :   1.3355 B(  1-C , 21-H ) :   0.9665 B(  2-C ,  3-C ) :   1.3809
B(  2-C , 22-H ) :   0.9543 B(  3-C ,  4-C ) :   1.3354 B(  3-C , 14-C ) :   0.9805
B(  4-C ,  5-C ) :   1.3793 B(  4-C ,  6-C ) :   0.9556 B(  5-C , 23-H ) :   0.9568
B(  6-C ,  7-O ) :   2.1563 B(  6-C ,  8-C ) :   0.9490 B(  8-C ,  9-C ) :   1.4260
B(  8-C , 13-C ) :   1.3039 B(  9-C , 10-C ) :   1.2348 B(  9-C , 24-H ) :   0.9561
B( 10-C , 11-C ) :   1.3765 B( 10-C , 25-H ) :   0.9662 B( 11-C , 12-C ) :   1.2425
B( 11-C , 26-H ) :   0.9562 B( 12-C , 13-C ) :   1.2130 B( 12-C , 16-N ) :   1.4012
B( 13-C , 14-C ) :   1.0250 B( 14-C , 15-O ) :   1.9587 B( 15-O , 27-H ) :   0.1486
B( 16-N , 17-C ) :   0.9828 B( 16-N , 27-H ) :   0.7569 B( 17-C , 18-C ) :   1.0821
B( 17-C , 28-H ) :   0.9076 B( 17-C , 29-H ) :   0.9107 B( 18-C , 19-O ) :   1.0793
B( 18-C , 30-H ) :   0.9257 B( 18-C , 31-H ) :   0.9232 B( 19-O , 32-H ) :   0.8521

Dispersion correction           -0.045870818
FINAL SINGLE POINT ENERGY      -896.121906150390

DIPOLE MOMENT
-------------

Method             : SCF
Type of density    : Electron Density
Multiplicity       :   1
Irrep              :   0
Energy             :  -896.2191795005030599 Eh
Relativity type    :
Basis              : AO
                                X                 Y                 Z
Electronic contribution:    -11.453187153       3.805130979       0.276991335
Nuclear contribution   :     12.271796996      -4.050604358      -0.757738964
                        -----------------------------------------
Total Dipole Moment    :      0.818609843      -0.245473379      -0.480747629
                        -----------------------------------------
Magnitude (a.u.)       :      0.980559809
Magnitude (Debye)      :      2.492384961

Rotational constants in cm-1:             0.020671             0.007065             0.005278
Rotational constants in MHz :           619.709721           211.807885           158.241400

                             ****ORCA TERMINATED NORMALLY****
TOTAL RUN TIME: 0 days 0 hours 0 minutes 33 seconds 307 msec
