                         Program Version 6.0.0  -   RELEASE  -
|  1> ! pbe def2-sv(p) def2/J RI DEFGRID1 loosescf d4 GCP(DFT/SV(P)) printgap
|  2> %output
|  3>     printlevel normal
|  4> end
|  5> * xyz 0 1
|  6> C 2.0343822535 -0.6279574051 -0.1509214131
|  7> C 1.1158814735 0.3364204465 0.5923284201
|  8> C 0.0013520299 0.9066275669 -0.288275914
|  9> C -1.0897414034 -0.0998919214 -0.6589122403
| 10> N -1.9627989433 -0.3649325006 0.4792446172
| 11> H 2.8348450309 -0.9656004241 0.5030423808
| 12> H 1.4907121199 -1.5029513942 -0.4984746159
| 13> H 2.4790471585 -0.1373503668 -1.0138970364
| 14> H 0.6816879257 -0.1655677173 1.4590881769
| 15> H 1.7140170454 1.1693758927 0.9677943113
| 16> H -0.4795959988 1.734279858 0.2348030625
| 17> H 0.4428638483 1.2954318049 -1.2078146148
| 18> H -0.6286883694 -1.0132595618 -1.0692565078
| 19> H -1.7147243243 0.3338715768 -1.445142401
| 20> H -1.4284920883 -0.7942088099 1.2272663373
| 21> H -2.6858849691 -1.0221341354 0.2098910162
| 22> *
| 23>
| 24>                          ****END OF INPUT****

CARTESIAN COORDINATES (ANGSTROEM)
---------------------------------
  C      2.034382   -0.627957   -0.150921
  C      1.115881    0.336420    0.592328
  C      0.001352    0.906628   -0.288276
  C     -1.089741   -0.099892   -0.658912
  N     -1.962799   -0.364933    0.479245
  H      2.834845   -0.965600    0.503042
  H      1.490712   -1.502951   -0.498475
  H      2.479047   -0.137350   -1.013897
  H      0.681688   -0.165568    1.459088
  H      1.714017    1.169376    0.967794
  H     -0.479596    1.734280    0.234803
  H      0.442864    1.295432   -1.207815
  H     -0.628688   -1.013260   -1.069257
  H     -1.714724    0.333872   -1.445142
  H     -1.428492   -0.794209    1.227266
  H     -2.685885   -1.022134    0.209891

 Total Charge           Charge          ....    0
 Multiplicity           Mult            ....    1
 Number of Electrons    NEL             ....   42
 Basis Dimension        Dim             ....   92

ORBITAL ENERGIES
----------------

  NO   OCC          E(Eh)            E(eV)
   0   2.0000     -13.953029      -379.6812
   1   2.0000      -9.902171      -269.4518
   2   2.0000      -9.882967      -268.9292
   3   2.0000      -9.875928      -268.7377
   4   2.0000      -9.872707      -268.6500
   5   2.0000      -0.790038       -21.4980
   6   2.0000      -0.704185       -19.1618
   7   2.0000      -0.628403       -17.0997
   8   2.0000      -0.560392       -15.2490
   9   2.0000      -0.495639       -13.4870
  10   2.0000      -0.443938       -12.0802
  11   2.0000      -0.419071       -11.4035
  12   2.0000      -0.390129       -10.6160
  13   2.0000      -0.378067       -10.2877
  14   2.0000      -0.350217        -9.5299
  15   2.0000      -0.331917        -9.0319
  16   2.0000      -0.322866        -8.7856
  17   2.0000      -0.288445        -7.8490
  18   2.0000      -0.281305        -7.6547
  19   2.0000      -0.277485        -7.5508
  20   2.0000      -0.178163        -4.8481
  21   0.0000       0.027410         0.7459
  22   0.0000       0.059269         1.6128
  23   0.0000       0.066932         1.8213
  24   0.0000       0.074234         2.0200
  25   0.0000       0.100787         2.7426

MULLIKEN ATOMIC CHARGES
-----------------------
   0 C :   -0.289247
   1 C :   -0.194042
   2 C :   -0.158219
   3 C :   -0.080206
   4 N :   -0.467216
   5 H :    0.102114
   6 H :    0.104381
   7 H :    0.098304
   8 H :    0.081894
   9 H :    0.089069
  10 H :    0.089195
  11 H :    0.078342
  12 H :    0.065757
  13 H :    0.078930
  14 H :    0.199063
  15 H :    0.201879
Sum of atomic charges:    0.0000000

LOEWDIN ATOMIC CHARGES
----------------------
   0 C :   -0.343853
   1 C :   -0.236845
   2 C :   -0.236039
   3 C :   -0.177176
   4 N :   -0.419547
   5 H :    0.118939
   6 H :    0.114523
   7 H :    0.117303
   8 H :    0.109606
   9 H :    0.117893
  10 H :    0.120543
  11 H :    0.115116
  12 H :    0.087357
  13 H :    0.111450
  14 H :    0.197312
  15 H :    0.203419

  Mayer bond orders larger than 0.100000
B(  0-C ,  1-C ) :   1.1504 B(  0-C ,  5-H ) :   0.9513 B(  0-C ,  6-H ) :   0.9511
B(  0-C ,  7-H ) :   0.9544 B(  1-C ,  2-C ) :   1.1227 B(  1-C ,  8-H ) :   0.9246
B(  1-C ,  9-H ) :   0.9274 B(  2-C ,  3-C ) :   1.1230 B(  2-C , 10-H ) :   0.9145
B(  2-C , 11-H ) :   0.9216 B(  3-C ,  4-N ) :   1.1064 B(  3-C , 12-H ) :   0.9149
B(  3-C , 13-H ) :   0.9266 B(  4-N , 14-H ) :   0.9013 B(  4-N , 15-H ) :   0.9039

Dispersion correction           -0.010419363
FINAL SINGLE POINT ENERGY      -213.243431218996

DIPOLE MOMENT
-------------

Method             : SCF
Type of density    : Electron Density
Multiplicity       :   1
Irrep              :   0
Energy             :  -213.3036224225970443 Eh
Relativity type    :
Basis              : AO
                                X                 Y                 Z
Electronic contribution:     -2.372556769       0.537950209       0.502369510
Nuclear contribution   :      2.527742384      -1.004057708      -0.590956447
                        -----------------------------------------
Total Dipole Moment    :      0.155185615      -0.466107499      -0.088586938
                        -----------------------------------------
Magnitude (a.u.)       :      0.499185759
Magnitude (Debye)      :      1.268829363

Rotational constants in cm-1:             0.306264             0.088556             0.085723
Rotational constants in MHz :          9181.570128          2654.833685          2569.900277

                             ****ORCA TERMINATED NORMALLY****
TOTAL RUN TIME: 0 days 0 hours 0 minutes 7 seconds 650 msec
