                         Program Version 6.0.0  -   RELEASE  -
|  1> ! r2scan-3c def2/J RI DEFGRID2 scfconv6 printgap
|  2> %output
|  3>     printlevel normal
|  4> end
|  5> * xyz 0 1
|  6> C -3.3696627121 -0.8216869896 0.1548956974
|  7> C -1.9627095971 -0.5375922913 -0.35705279
|  8> C -1.5053363285 0.8728123635 0.0095260667
|  9> C -0.106183502 1.1769255803 -0.5291845952
| 10> C 0.9448675121 0.3519564023 0.1668296821
| 11> O 1.0000726862 0.1482986701 1.3611895725
| 12> O 1.8399001407 -0.1240526266 -0.69353671
| 13> C 2.9221609436 -0.9008997353 -0.1729063053
| 14> H -3.4043991422 -0.7302020793 1.2379720017
| 15> H -4.0783240884 -0.1163592775 -0.2724539137
| 16> H -3.6785085888 -1.8281026801 -0.1154442017
| 17> H -1.2657857445 -1.262247528 0.0719669356
| 18> H -1.9397925624 -0.6553051831 -1.442627856
| 19> H -1.4920665537 0.9777983311 1.0962495836
| 20> H -2.2091376451 1.5996254967 -0.3975418741
| 21> H 0.1362505991 2.2249277844 -0.340821659
| 22> H -0.0414526574 0.9888903608 -1.6004100813
| 23> H 2.5693655091 -1.9017033734 0.0779364611
| 24> H 3.3234574254 -0.428159887 0.7242823018
| 25> H 3.6652217679 -0.9404614726 -0.9632385258
| 26> *
| 27>
| 28>                          ****END OF INPUT****

CARTESIAN COORDINATES (ANGSTROEM)
---------------------------------
  C     -3.369663   -0.821687    0.154896
  C     -1.962710   -0.537592   -0.357053
  C     -1.505336    0.872812    0.009526
  C     -0.106184    1.176926   -0.529185
  C      0.944868    0.351956    0.166830
  O      1.000073    0.148299    1.361190
  O      1.839900   -0.124053   -0.693537
  C      2.922161   -0.900900   -0.172906
  H     -3.404399   -0.730202    1.237972
  H     -4.078324   -0.116359   -0.272454
  H     -3.678509   -1.828103   -0.115444
  H     -1.265786   -1.262248    0.071967
  H     -1.939793   -0.655305   -1.442628
  H     -1.492067    0.977798    1.096250
  H     -2.209138    1.599625   -0.397542
  H      0.136251    2.224928   -0.340822
  H     -0.041453    0.988890   -1.600410
  H      2.569366   -1.901703    0.077936
  H      3.323457   -0.428160    0.724282
  H      3.665222   -0.940461   -0.963239

 Total Charge           Charge          ....    0
 Multiplicity           Mult            ....    1
 Number of Electrons    NEL             ....   64
 Basis Dimension        Dim             ....  222

ORBITAL ENERGIES
----------------

  NO   OCC          E(Eh)            E(eV)
   0   2.0000     -18.999963      -517.0153
   1   2.0000     -18.929431      -515.0960
   2   2.0000     -10.152586      -276.2659
   3   2.0000     -10.086669      -274.4722
   4   2.0000     -10.041949      -273.2553
   5   2.0000     -10.030369      -272.9402
   6   2.0000     -10.025921      -272.8192
   7   2.0000     -10.016016      -272.5497
   8   2.0000      -1.073263       -29.2050
   9   2.0000      -0.976787       -26.5797
  10   2.0000      -0.776868       -21.1397
  11   2.0000      -0.726771       -19.7764
  12   2.0000      -0.686744       -18.6872
  13   2.0000      -0.614444       -16.7199
  14   2.0000      -0.556985       -15.1563
  15   2.0000      -0.525902       -14.3105
  16   2.0000      -0.473740       -12.8911
  17   2.0000      -0.456979       -12.4350
  18   2.0000      -0.444518       -12.0960
  19   2.0000      -0.425560       -11.5801
  20   2.0000      -0.411253       -11.1908
  21   2.0000      -0.395378       -10.7588
  22   2.0000      -0.387621       -10.5477
  23   2.0000      -0.353428        -9.6173
  24   2.0000      -0.349263        -9.5039
  25   2.0000      -0.334536        -9.1032
  26   2.0000      -0.320811        -8.7297
  27   2.0000      -0.307171        -8.3585
  28   2.0000      -0.298434        -8.1208
  29   2.0000      -0.294625        -8.0172
  30   2.0000      -0.274790        -7.4774
  31   2.0000      -0.237969        -6.4755
  32   0.0000      -0.016024        -0.4360
  33   0.0000       0.065877         1.7926
  34   0.0000       0.089662         2.4398
  35   0.0000       0.107822         2.9340
  36   0.0000       0.114284         3.1098

MULLIKEN ATOMIC CHARGES
-----------------------
   0 C :   -0.476880
   1 C :   -0.252956
   2 C :   -0.250703
   3 C :   -0.287953
   4 C :    0.337319
   5 O :   -0.420862
   6 O :   -0.183349
   7 C :   -0.297207
   8 H :    0.146831
   9 H :    0.140435
  10 H :    0.146943
  11 H :    0.148636
  12 H :    0.137333
  13 H :    0.162663
  14 H :    0.142407
  15 H :    0.169200
  16 H :    0.162655
  17 H :    0.155198
  18 H :    0.170215
  19 H :    0.150076
Sum of atomic charges:   -0.0000000

LOEWDIN ATOMIC CHARGES
----------------------
   0 C :   -0.422145
   1 C :   -0.309162
   2 C :   -0.289864
   3 C :   -0.229945
   4 C :    0.350990
   5 O :   -0.432210
   6 O :   -0.603366
   7 C :   -0.045729
   8 H :    0.152192
   9 H :    0.149400
  10 H :    0.150790
  11 H :    0.158065
  12 H :    0.150475
  13 H :    0.171260
  14 H :    0.155586
  15 H :    0.183199
  16 H :    0.178886
  17 H :    0.173690
  18 H :    0.181961
  19 H :    0.175925

  Mayer bond orders larger than 0.100000
B(  0-C ,  1-C ) :   0.9038 B(  0-C ,  8-H ) :   0.9834 B(  0-C ,  9-H ) :   0.9828
B(  0-C , 10-H ) :   0.9744 B(  1-C ,  2-C ) :   0.9313 B(  1-C , 11-H ) :   0.9605
B(  1-C , 12-H ) :   0.9703 B(  2-C ,  3-C ) :   0.8973 B(  2-C , 13-H ) :   0.9667
B(  2-C , 14-H ) :   0.9695 B(  3-C ,  4-C ) :   0.9472 B(  3-C , 15-H ) :   0.9320
B(  3-C , 16-H ) :   0.9992 B(  4-C ,  5-O ) :   1.8284 B(  4-C ,  6-O ) :   1.0609
B(  6-O ,  7-C ) :   0.8501 B(  7-C , 17-H ) :   0.9609 B(  7-C , 18-H ) :   0.9646
B(  7-C , 19-H ) :   0.9695

Dispersion correction           -0.005086673
FINAL SINGLE POINT ENERGY      -386.231694431330

DIPOLE MOMENT
-------------

Method             : SCF
Type of density    : Electron Density
Multiplicity       :   1
Irrep              :   0
Energy             :  -386.2385729759898823 Eh
Relativity type    :
Basis              : AO
                                X                 Y                 Z
Electronic contribution:      8.005921463       1.896239633       1.097198611
Nuclear contribution   :     -7.852722245      -1.942864698      -1.795255399
                        -----------------------------------------
Total Dipole Moment    :      0.153199218      -0.046625065      -0.698056788
                        -----------------------------------------
Magnitude (a.u.)       :      0.716189344
Magnitude (Debye)      :      1.820408641

Rotational constants in cm-1:             0.138320             0.031691             0.030712
Rotational constants in MHz :          4146.741320           950.080306           920.718450

                             ****ORCA TERMINATED NORMALLY****
TOTAL RUN TIME: 0 days 0 hours 0 minutes 29 seconds 3 msec
