                         Program Version 6.0.0  -   RELEASE  -
|  1> ! r2scan-3c def2/J RI DEFGRID2 scfconv6 printgap
|  2> %output
|  3>     printlevel normal
|  4> end
|  5> %cpcm
|  6>     smd true
|  7>     smdsolvent "water"
|  8> end
|  9> * xyz 0 1
| 10> C -3.3696627121 -0.8216869896 0.1548956974
| 11> C -1.9627095971 -0.5375922913 -0.35705279
| 12> C -1.5053363285 0.8728123635 0.0095260667
| 13> C -0.106183502 1.1769255803 -0.5291845952
| 14> C 0.9448675121 0.3519564023 0.1668296821
| 15> O 1.0000726862 0.1482986701 1.3611895725
| 16> O 1.8399001407 -0.1240526266 -0.69353671
| 17> C 2.9221609436 -0.9008997353 -0.1729063053
| 18> H -3.4043991422 -0.7302020793 1.2379720017
| 19> H -4.0783240884 -0.1163592775 -0.2724539137
| 20> H -3.6785085888 -1.8281026801 -0.1154442017
| 21> H -1.2657857445 -1.262247528 0.0719669356
| 22> H -1.9397925624 -0.6553051831 -1.442627856
| 23> H -1.4920665537 0.9777983311 1.0962495836
| 24> H -2.2091376451 1.5996254967 -0.3975418741
| 25> H 0.1362505991 2.2249277844 -0.340821659
| 26> H -0.0414526574 0.9888903608 -1.6004100813
| 27> H 2.5693655091 -1.9017033734 0.0779364611
| 28> H 3.3234574254 -0.428159887 0.7242823018
| 29> H 3.6652217679 -0.9404614726 -0.9632385258
| 30> *
| 31>
| 32>                          ****END OF INPUT****

CARTESIAN COORDINATES (ANGSTROEM)
---------------------------------
  C     -3.369663   -0.821687    0.154896
  C     -1.962710   -0.537592   -0.357053
  C     -1.505336    0.872812    0.009526
  C     -0.106184    1.176926   -0.529185
  C      0.944868    0.351956    0.166830
  O      1.000073    0.148299    1.361190
  O      1.839900   -0.124053   -0.693537
  C      2.922161   -0.900900   -0.172906
  H     -3.404399   -0.730202    1.237972
  H     -4.078324   -0.116359   -0.272454
  H     -3.678509   -1.828103   -0.115444
  H     -1.265786   -1.262248    0.071967
  H     -1.939793   -0.655305   -1.442628
  H     -1.492067    0.977798    1.096250
  H     -2.209138    1.599625   -0.397542
  H      0.136251    2.224928   -0.340822
  H     -0.041453    0.988890   -1.600410
  H      2.569366   -1.901703    0.077936
  H      3.323457   -0.428160    0.724282
  H      3.665222   -0.940461   -0.963239

 Total Charge           Charge          ....    0
 Multiplicity           Mult            ....    1
 Number of Electrons    NEL             ....   64
 Basis Dimension        Dim             ....  222

ORBITAL ENERGIES
----------------

  NO   OCC          E(Eh)            E(eV)
   0   2.0000     -19.004872      -517.1489
   1   2.0000     -18.944481      -515.5055
   2   2.0000     -10.162503      -276.5358
   3   2.0000     -10.076127      -274.1854
   4   2.0000     -10.035779      -273.0874
   5   2.0000     -10.024237      -272.7734
   6   2.0000     -10.018578      -272.6194
   7   2.0000     -10.008550      -272.3465
   8   2.0000      -1.079813       -29.3832
   9   2.0000      -0.989578       -26.9278
  10   2.0000      -0.771747       -21.0003
  11   2.0000      -0.722215       -19.6525
  12   2.0000      -0.680628       -18.5208
  13   2.0000      -0.608314       -16.5531
  14   2.0000      -0.550963       -14.9925
  15   2.0000      -0.524102       -14.2615
  16   2.0000      -0.474155       -12.9024
  17   2.0000      -0.458130       -12.4664
  18   2.0000      -0.451333       -12.2814
  19   2.0000      -0.424168       -11.5422
  20   2.0000      -0.404147       -10.9974
  21   2.0000      -0.389281       -10.5929
  22   2.0000      -0.385418       -10.4878
  23   2.0000      -0.354252        -9.6397
  24   2.0000      -0.342970        -9.3327
  25   2.0000      -0.329241        -8.9591
  26   2.0000      -0.321956        -8.7609
  27   2.0000      -0.301422        -8.2021
  28   2.0000      -0.291525        -7.9328
  29   2.0000      -0.288531        -7.8513
  30   2.0000      -0.281648        -7.6640
  31   2.0000      -0.253698        -6.9035
  32   0.0000      -0.023214        -0.6317
  33   0.0000       0.070324         1.9136
  34   0.0000       0.096457         2.6247
  35   0.0000       0.116125         3.1599
  36   0.0000       0.125809         3.4234

MULLIKEN ATOMIC CHARGES
-----------------------
   0 C :   -0.517853
   1 C :   -0.256788
   2 C :   -0.269554
   3 C :   -0.302975
   4 C :    0.379769
   5 O :   -0.505346
   6 O :   -0.201435
   7 C :   -0.328895
   8 H :    0.154404
   9 H :    0.154745
  10 H :    0.157620
  11 H :    0.151560
  12 H :    0.152326
  13 H :    0.155709
  14 H :    0.162386
  15 H :    0.200769
  16 H :    0.178445
  17 H :    0.180088
  18 H :    0.177485
  19 H :    0.177540
Sum of atomic charges:   -0.0000000

LOEWDIN ATOMIC CHARGES
----------------------
   0 C :   -0.430622
   1 C :   -0.310624
   2 C :   -0.290074
   3 C :   -0.226932
   4 C :    0.361250
   5 O :   -0.492390
   6 O :   -0.605993
   7 C :   -0.042836
   8 H :    0.153079
   9 H :    0.153317
  10 H :    0.153331
  11 H :    0.157445
  12 H :    0.155714
  13 H :    0.166649
  14 H :    0.163134
  15 H :    0.194495
  16 H :    0.186469
  17 H :    0.181979
  18 H :    0.184625
  19 H :    0.187982

  Mayer bond orders larger than 0.100000
B(  0-C ,  1-C ) :   0.8930 B(  0-C ,  8-H ) :   0.9818 B(  0-C ,  9-H ) :   0.9799
B(  0-C , 10-H ) :   0.9715 B(  1-C ,  2-C ) :   0.9268 B(  1-C , 11-H ) :   0.9611
B(  1-C , 12-H ) :   0.9678 B(  2-C ,  3-C ) :   0.8795 B(  2-C , 13-H ) :   0.9752
B(  2-C , 14-H ) :   0.9637 B(  3-C ,  4-C ) :   0.9505 B(  3-C , 15-H ) :   0.9255
B(  3-C , 16-H ) :   0.9884 B(  4-C ,  5-O ) :   1.7633 B(  4-C ,  6-O ) :   1.0838
B(  6-O ,  7-C ) :   0.8320 B(  7-C , 17-H ) :   0.9542 B(  7-C , 18-H ) :   0.9600
B(  7-C , 19-H ) :   0.9595

Dispersion correction           -0.005086673
FINAL SINGLE POINT ENERGY      -386.236383455362

DIPOLE MOMENT
-------------

Method             : SCF
Type of density    : Electron Density
Multiplicity       :   1
Irrep              :   0
Energy             :  -386.2432620000222983 Eh
Relativity type    :
Basis              : AO
                                X                 Y                 Z
Electronic contribution:      8.051809332       1.934794081       0.734160813
Nuclear contribution   :     -7.852722245      -1.942864698      -1.795255399
                        -----------------------------------------
Total Dipole Moment    :      0.199087087      -0.008070616      -1.061094586
                        -----------------------------------------
Magnitude (a.u.)       :      1.079639997
Magnitude (Debye)      :      2.744226786

Rotational constants in cm-1:             0.138320             0.031691             0.030712
Rotational constants in MHz :          4146.741320           950.080306           920.718450

                             ****ORCA TERMINATED NORMALLY****
TOTAL RUN TIME: 0 days 0 hours 0 minutes 33 seconds 905 msec
