                         Program Version 6.0.0  -   RELEASE  -
|  1> ! r2scan-3c def2/J RI DEFGRID2 scfconv6 printgap
|  2> %output
|  3>     printlevel normal
|  4> end
|  5> * xyz 0 1
|  6> C -3.2489854994 -0.6599106618 -0.5960271943
|  7> C -2.5367345911 -0.1549455459 0.6538375541
|  8> C -1.8160552609 1.1765343318 0.4452020204
|  9> C -0.6950937379 1.1385289816 -0.5718355183
| 10> I 0.9490408529 -0.1660356449 0.0145606127
| 11> H -2.540063963 -0.930735752 -1.3747712827
| 12> H -3.8330487516 -1.5451315469 -0.3582408941
| 13> H -3.9216260321 0.1003237247 -0.9873492872
| 14> H -1.8201452476 -0.9070059665 0.9921222441
| 15> H -3.2699660234 -0.0207971366 1.451376116
| 16> H -2.5363558586 1.9196295032 0.0902249553
| 17> H -1.4257873719 1.5244499207 1.4044086755
| 18> H -0.2449527888 2.1196987858 -0.695541754
| 19> H -1.0303225087 0.7675981362 -1.5353739663
| 20> *
| 21>
| 22>                          ****END OF INPUT****

CARTESIAN COORDINATES (ANGSTROEM)
---------------------------------
  C     -3.248985   -0.659911   -0.596027
  C     -2.536735   -0.154946    0.653838
  C     -1.816055    1.176534    0.445202
  C     -0.695094    1.138529   -0.571836
  I      0.949041   -0.166036    0.014561
  H     -2.540064   -0.930736   -1.374771
  H     -3.833049   -1.545132   -0.358241
  H     -3.921626    0.100324   -0.987349
  H     -1.820145   -0.907006    0.992122
  H     -3.269966   -0.020797    1.451376
  H     -2.536356    1.919630    0.090225
  H     -1.425787    1.524450    1.404409
  H     -0.244953    2.119699   -0.695542
  H     -1.030323    0.767598   -1.535374

 Total Charge           Charge          ....    0
 Multiplicity           Mult            ....    1
 Number of Electrons    NEL             ....   58
 Basis Dimension        Dim             ....  157

ORBITAL ENERGIES
----------------

  NO   OCC          E(Eh)            E(eV)
   0   2.0000     -10.084607      -274.4161
   1   2.0000     -10.045391      -273.3490
   2   2.0000     -10.032296      -272.9926
   3   2.0000     -10.022891      -272.7367
   4   2.0000      -6.803454      -185.1314
   5   2.0000      -4.821750      -131.2065
   6   2.0000      -4.806003      -130.7780
   7   2.0000      -4.805793      -130.7723
   8   2.0000      -1.857180       -50.5364
   9   2.0000      -1.853093       -50.4252
  10   2.0000      -1.852894       -50.4198
  11   2.0000      -1.840154       -50.0731
  12   2.0000      -1.840124       -50.0723
  13   2.0000      -0.784556       -21.3489
  14   2.0000      -0.714591       -19.4450
  15   2.0000      -0.651515       -17.7286
  16   2.0000      -0.603351       -16.4180
  17   2.0000      -0.538638       -14.6571
  18   2.0000      -0.448735       -12.2107
  19   2.0000      -0.442001       -12.0274
  20   2.0000      -0.390402       -10.6234
  21   2.0000      -0.379527       -10.3275
  22   2.0000      -0.373874       -10.1736
  23   2.0000      -0.329547        -8.9674
  24   2.0000      -0.310041        -8.4367
  25   2.0000      -0.308405        -8.3921
  26   2.0000      -0.300117        -8.1666
  27   2.0000      -0.232352        -6.3226
  28   2.0000      -0.230505        -6.2724
  29   0.0000      -0.054667        -1.4876
  30   0.0000       0.080657         2.1948
  31   0.0000       0.108059         2.9404
  32   0.0000       0.113040         3.0760
  33   0.0000       0.117277         3.1913

MULLIKEN ATOMIC CHARGES
-----------------------
   0 C :   -0.481395
   1 C :   -0.222781
   2 C :   -0.252352
   3 C :   -0.300846
   4 I :   -0.147434
   5 H :    0.150904
   6 H :    0.150076
   7 H :    0.143363
   8 H :    0.155560
   9 H :    0.144355
  10 H :    0.144039
  11 H :    0.161706
  12 H :    0.178614
  13 H :    0.176192
Sum of atomic charges:    0.0000000

LOEWDIN ATOMIC CHARGES
----------------------
   0 C :   -0.425263
   1 C :   -0.323315
   2 C :   -0.324680
   3 C :   -0.408630
   4 I :    0.054492
   5 H :    0.149816
   6 H :    0.154520
   7 H :    0.149589
   8 H :    0.161702
   9 H :    0.154401
  10 H :    0.163973
  11 H :    0.163492
  12 H :    0.165435
  13 H :    0.164468

  Mayer bond orders larger than 0.100000
B(  0-C ,  1-C ) :   0.8970 B(  0-C ,  5-H ) :   0.9794 B(  0-C ,  6-H ) :   0.9671
B(  0-C ,  7-H ) :   0.9813 B(  1-C ,  2-C ) :   0.9110 B(  1-C ,  8-H ) :   0.9636
B(  1-C ,  9-H ) :   0.9648 B(  2-C ,  3-C ) :   0.9053 B(  2-C , 10-H ) :   0.9561
B(  2-C , 11-H ) :   0.9649 B(  3-C ,  4-I ) :   0.9586 B(  3-C , 12-H ) :   0.9464
B(  3-C , 13-H ) :   0.9617

Dispersion correction           -0.003704907
FINAL SINGLE POINT ENERGY      -455.529356885890

DIPOLE MOMENT
-------------

Method             : SCF
Type of density    : Electron Density
Multiplicity       :   1
Irrep              :   0
Energy             :  -455.5320086360983396 Eh
Relativity type    :
Basis              : AO
                                X                 Y                 Z
Electronic contribution:     87.461687351     -14.461560805       1.913533645
Nuclear contribution   :    -88.203058613      14.887197710      -2.006933625
                        -----------------------------------------
Total Dipole Moment    :     -0.741371261       0.425636905      -0.093399980
                        -----------------------------------------
Magnitude (a.u.)       :      0.859954463
Magnitude (Debye)      :      2.185830534

Rotational constants in cm-1:             0.206212             0.037261             0.035041
Rotational constants in MHz :          6182.094046          1117.048382          1050.497312

                             ****ORCA TERMINATED NORMALLY****
TOTAL RUN TIME: 0 days 0 hours 0 minutes 15 seconds 873 msec
