                         Program Version 6.0.0  -   RELEASE  -
|  1> ! r2scan-3c def2/J RI DEFGRID2 scfconv6 printgap
|  2> %output
|  3>     printlevel normal
|  4> end
|  5> %cpcm
|  6>     smd true
|  7>     smdsolvent "water"
|  8> end
|  9> * xyz 0 1
| 10> C -3.2489854994 -0.6599106618 -0.5960271943
| 11> C -2.5367345911 -0.1549455459 0.6538375541
| 12> C -1.8160552609 1.1765343318 0.4452020204
| 13> C -0.6950937379 1.1385289816 -0.5718355183
| 14> I 0.9490408529 -0.1660356449 0.0145606127
| 15> H -2.540063963 -0.930735752 -1.3747712827
| 16> H -3.8330487516 -1.5451315469 -0.3582408941
| 17> H -3.9216260321 0.1003237247 -0.9873492872
| 18> H -1.8201452476 -0.9070059665 0.9921222441
| 19> H -3.2699660234 -0.0207971366 1.451376116
| 20> H -2.5363558586 1.9196295032 0.0902249553
| 21> H -1.4257873719 1.5244499207 1.4044086755
| 22> H -0.2449527888 2.1196987858 -0.695541754
| 23> H -1.0303225087 0.7675981362 -1.5353739663
| 24> *
| 25>
| 26>                          ****END OF INPUT****

CARTESIAN COORDINATES (ANGSTROEM)
---------------------------------
  C     -3.248985   -0.659911   -0.596027
  C     -2.536735   -0.154946    0.653838
  C     -1.816055    1.176534    0.445202
  C     -0.695094    1.138529   -0.571836
  I      0.949041   -0.166036    0.014561
  H     -2.540064   -0.930736   -1.374771
  H     -3.833049   -1.545132   -0.358241
  H     -3.921626    0.100324   -0.987349
  H     -1.820145   -0.907006    0.992122
  H     -3.269966   -0.020797    1.451376
  H     -2.536356    1.919630    0.090225
  H     -1.425787    1.524450    1.404409
  H     -0.244953    2.119699   -0.695542
  H     -1.030323    0.767598   -1.535374

 Total Charge           Charge          ....    0
 Multiplicity           Mult            ....    1
 Number of Electrons    NEL             ....   58
 Basis Dimension        Dim             ....  157

ORBITAL ENERGIES
----------------

  NO   OCC          E(Eh)            E(eV)
   0   2.0000     -10.070883      -274.0427
   1   2.0000     -10.029251      -272.9098
   2   2.0000     -10.019073      -272.6328
   3   2.0000     -10.008572      -272.3471
   4   2.0000      -6.800824      -185.0598
   5   2.0000      -4.818175      -131.1092
   6   2.0000      -4.803870      -130.7199
   7   2.0000      -4.803642      -130.7138
   8   2.0000      -1.853798       -50.4444
   9   2.0000      -1.850092       -50.3436
  10   2.0000      -1.849884       -50.3379
  11   2.0000      -1.838368       -50.0245
  12   2.0000      -1.838346       -50.0239
  13   2.0000      -0.770047       -20.9540
  14   2.0000      -0.702199       -19.1078
  15   2.0000      -0.642689       -17.4885
  16   2.0000      -0.591733       -16.1019
  17   2.0000      -0.524493       -14.2722
  18   2.0000      -0.432979       -11.7819
  19   2.0000      -0.427373       -11.6294
  20   2.0000      -0.376072       -10.2335
  21   2.0000      -0.364294        -9.9129
  22   2.0000      -0.359136        -9.7726
  23   2.0000      -0.317840        -8.6489
  24   2.0000      -0.295271        -8.0347
  25   2.0000      -0.294132        -8.0037
  26   2.0000      -0.287543        -7.8244
  27   2.0000      -0.232710        -6.3324
  28   2.0000      -0.230417        -6.2700
  29   0.0000      -0.044654        -1.2151
  30   0.0000       0.096385         2.6228
  31   0.0000       0.122574         3.3354
  32   0.0000       0.123902         3.3716
  33   0.0000       0.130616         3.5542

MULLIKEN ATOMIC CHARGES
-----------------------
   0 C :   -0.515808
   1 C :   -0.234899
   2 C :   -0.263642
   3 C :   -0.279106
   4 I :   -0.215863
   5 H :    0.160642
   6 H :    0.157040
   7 H :    0.156282
   8 H :    0.148654
   9 H :    0.154635
  10 H :    0.165481
  11 H :    0.168481
  12 H :    0.200470
  13 H :    0.197634
Sum of atomic charges:   -0.0000000

LOEWDIN ATOMIC CHARGES
----------------------
   0 C :   -0.432972
   1 C :   -0.325479
   2 C :   -0.323028
   3 C :   -0.394944
   4 I :    0.015949
   5 H :    0.152399
   6 H :    0.154602
   7 H :    0.154034
   8 H :    0.157498
   9 H :    0.157111
  10 H :    0.173114
  11 H :    0.164769
  12 H :    0.173976
  13 H :    0.172973

  Mayer bond orders larger than 0.100000
B(  0-C ,  1-C ) :   0.8955 B(  0-C ,  5-H ) :   0.9766 B(  0-C ,  6-H ) :   0.9665
B(  0-C ,  7-H ) :   0.9777 B(  1-C ,  2-C ) :   0.9026 B(  1-C ,  8-H ) :   0.9684
B(  1-C ,  9-H ) :   0.9651 B(  2-C ,  3-C ) :   0.9044 B(  2-C , 10-H ) :   0.9509
B(  2-C , 11-H ) :   0.9663 B(  3-C ,  4-I ) :   0.9026 B(  3-C , 12-H ) :   0.9406
B(  3-C , 13-H ) :   0.9556

Dispersion correction           -0.003704907
FINAL SINGLE POINT ENERGY      -455.531304271352

DIPOLE MOMENT
-------------

Method             : SCF
Type of density    : Electron Density
Multiplicity       :   1
Irrep              :   0
Energy             :  -455.5339560215608685 Eh
Relativity type    :
Basis              : AO
                                X                 Y                 Z
Electronic contribution:     87.243591776     -14.245449818       1.826868962
Nuclear contribution   :    -88.203058613      14.887197710      -2.006933625
                        -----------------------------------------
Total Dipole Moment    :     -0.959466837       0.641747892      -0.180064663
                        -----------------------------------------
Magnitude (a.u.)       :      1.168263776
Magnitude (Debye)      :      2.969490530

Rotational constants in cm-1:             0.206212             0.037261             0.035041
Rotational constants in MHz :          6182.094046          1117.048382          1050.497312

                             ****ORCA TERMINATED NORMALLY****
TOTAL RUN TIME: 0 days 0 hours 0 minutes 17 seconds 203 msec
