                         Program Version 6.0.0  -   RELEASE  -
|  1> ! r2scan-3c def2/J RI DEFGRID2 scfconv6 printgap
|  2> %output
|  3>     printlevel normal
|  4> end
|  5> * xyz 0 1
|  6> C -2.9876769202 -0.8899010987 -0.2230472052
|  7> C -2.5514253224 0.2907676509 0.6376365942
|  8> C -1.7825958172 1.3517250836 -0.1682178592
|  9> C -0.3424953444 1.5255724455 0.2654111448
| 10> I 0.8750668459 -0.2520020016 -0.056292782
| 11> H -2.127189246 -1.3779207683 -0.6749856917
| 12> H -3.5149120769 -1.6234751255 0.3817802274
| 13> H -3.6529970146 -0.5578638267 -1.0168693225
| 14> H -1.924425608 -0.0776290806 1.4524995207
| 15> H -3.4353546696 0.7415889352 1.0910166419
| 16> H -1.8184794687 1.1035040334 -1.2307128461
| 17> H -2.2573572226 2.3288218413 -0.0472760022
| 18> H -0.2663953461 1.7293448048 1.3302293139
| 19> H 0.1494818731 2.315003446 -0.296616531
| 20> *
| 21>
| 22>                          ****END OF INPUT****

CARTESIAN COORDINATES (ANGSTROEM)
---------------------------------
  C     -2.987677   -0.889901   -0.223047
  C     -2.551425    0.290768    0.637637
  C     -1.782596    1.351725   -0.168218
  C     -0.342495    1.525572    0.265411
  I      0.875067   -0.252002   -0.056293
  H     -2.127189   -1.377921   -0.674986
  H     -3.514912   -1.623475    0.381780
  H     -3.652997   -0.557864   -1.016869
  H     -1.924426   -0.077629    1.452500
  H     -3.435355    0.741589    1.091017
  H     -1.818479    1.103504   -1.230713
  H     -2.257357    2.328822   -0.047276
  H     -0.266395    1.729345    1.330229
  H      0.149482    2.315003   -0.296617

 Total Charge           Charge          ....    0
 Multiplicity           Mult            ....    1
 Number of Electrons    NEL             ....   58
 Basis Dimension        Dim             ....  157

ORBITAL ENERGIES
----------------

  NO   OCC          E(Eh)            E(eV)
   0   2.0000     -10.085620      -274.4437
   1   2.0000     -10.045149      -273.3424
   2   2.0000     -10.032652      -273.0023
   3   2.0000     -10.017338      -272.5856
   4   2.0000      -6.803483      -185.1322
   5   2.0000      -4.821825      -131.2085
   6   2.0000      -4.805986      -130.7775
   7   2.0000      -4.805830      -130.7733
   8   2.0000      -1.857251       -50.5384
   9   2.0000      -1.853134       -50.4263
  10   2.0000      -1.852975       -50.4220
  11   2.0000      -1.840163       -50.0734
  12   2.0000      -1.840149       -50.0730
  13   2.0000      -0.782687       -21.2980
  14   2.0000      -0.715036       -19.4571
  15   2.0000      -0.650631       -17.7046
  16   2.0000      -0.592221       -16.1152
  17   2.0000      -0.550056       -14.9678
  18   2.0000      -0.443902       -12.0792
  19   2.0000      -0.430929       -11.7262
  20   2.0000      -0.410913       -11.1815
  21   2.0000      -0.375284       -10.2120
  22   2.0000      -0.355335        -9.6692
  23   2.0000      -0.332458        -9.0467
  24   2.0000      -0.312750        -8.5104
  25   2.0000      -0.306294        -8.3347
  26   2.0000      -0.295091        -8.0298
  27   2.0000      -0.231621        -6.3027
  28   2.0000      -0.231065        -6.2876
  29   0.0000      -0.054832        -1.4921
  30   0.0000       0.085989         2.3399
  31   0.0000       0.101297         2.7564
  32   0.0000       0.104189         2.8351
  33   0.0000       0.117240         3.1903

MULLIKEN ATOMIC CHARGES
-----------------------
   0 C :   -0.475945
   1 C :   -0.232026
   2 C :   -0.255341
   3 C :   -0.306595
   4 I :   -0.146162
   5 H :    0.159633
   6 H :    0.144390
   7 H :    0.145043
   8 H :    0.158583
   9 H :    0.140993
  10 H :    0.168342
  11 H :    0.148116
  12 H :    0.176610
  13 H :    0.174359
Sum of atomic charges:    0.0000000

LOEWDIN ATOMIC CHARGES
----------------------
   0 C :   -0.426539
   1 C :   -0.324434
   2 C :   -0.322310
   3 C :   -0.406793
   4 I :    0.055924
   5 H :    0.156269
   6 H :    0.151393
   7 H :    0.148104
   8 H :    0.158361
   9 H :    0.153186
  10 H :    0.163862
  11 H :    0.164315
  12 H :    0.164459
  13 H :    0.164202

  Mayer bond orders larger than 0.100000
B(  0-C ,  1-C ) :   0.8969 B(  0-C ,  5-H ) :   0.9733 B(  0-C ,  6-H ) :   0.9722
B(  0-C ,  7-H ) :   0.9840 B(  1-C ,  2-C ) :   0.8298 B(  1-C ,  8-H ) :   0.9841
B(  1-C ,  9-H ) :   0.9609 B(  2-C ,  3-C ) :   0.9212 B(  2-C , 10-H ) :   0.9834
B(  2-C , 11-H ) :   0.9451 B(  3-C ,  4-I ) :   0.9466 B(  3-C , 12-H ) :   0.9615
B(  3-C , 13-H ) :   0.9527

Dispersion correction           -0.003690680
FINAL SINGLE POINT ENERGY      -455.525150109342

DIPOLE MOMENT
-------------

Method             : SCF
Type of density    : Electron Density
Multiplicity       :   1
Irrep              :   0
Energy             :  -455.5277758486259927 Eh
Relativity type    :
Basis              : AO
                                X                 Y                 Z
Electronic contribution:     80.567826400     -21.978741425      -4.905762324
Nuclear contribution   :    -81.171097356      22.581619409       5.012123252
                        -----------------------------------------
Total Dipole Moment    :     -0.603270956       0.602877984       0.106360928
                        -----------------------------------------
Magnitude (a.u.)       :      0.859482611
Magnitude (Debye)      :      2.184631180

Rotational constants in cm-1:             0.171301             0.042506             0.036052
Rotational constants in MHz :          5135.473285          1274.297136          1080.823628

                             ****ORCA TERMINATED NORMALLY****
TOTAL RUN TIME: 0 days 0 hours 0 minutes 16 seconds 61 msec
