                         Program Version 6.0.0  -   RELEASE  -
|  1> ! r2scan-3c def2/J RI DEFGRID2 scfconv6 printgap
|  2> %output
|  3>     printlevel normal
|  4> end
|  5> %cpcm
|  6>     smd true
|  7>     smdsolvent "water"
|  8> end
|  9> * xyz 0 1
| 10> C -2.9876769202 -0.8899010987 -0.2230472052
| 11> C -2.5514253224 0.2907676509 0.6376365942
| 12> C -1.7825958172 1.3517250836 -0.1682178592
| 13> C -0.3424953444 1.5255724455 0.2654111448
| 14> I 0.8750668459 -0.2520020016 -0.056292782
| 15> H -2.127189246 -1.3779207683 -0.6749856917
| 16> H -3.5149120769 -1.6234751255 0.3817802274
| 17> H -3.6529970146 -0.5578638267 -1.0168693225
| 18> H -1.924425608 -0.0776290806 1.4524995207
| 19> H -3.4353546696 0.7415889352 1.0910166419
| 20> H -1.8184794687 1.1035040334 -1.2307128461
| 21> H -2.2573572226 2.3288218413 -0.0472760022
| 22> H -0.2663953461 1.7293448048 1.3302293139
| 23> H 0.1494818731 2.315003446 -0.296616531
| 24> *
| 25>
| 26>                          ****END OF INPUT****

CARTESIAN COORDINATES (ANGSTROEM)
---------------------------------
  C     -2.987677   -0.889901   -0.223047
  C     -2.551425    0.290768    0.637637
  C     -1.782596    1.351725   -0.168218
  C     -0.342495    1.525572    0.265411
  I      0.875067   -0.252002   -0.056293
  H     -2.127189   -1.377921   -0.674986
  H     -3.514912   -1.623475    0.381780
  H     -3.652997   -0.557864   -1.016869
  H     -1.924426   -0.077629    1.452500
  H     -3.435355    0.741589    1.091017
  H     -1.818479    1.103504   -1.230713
  H     -2.257357    2.328822   -0.047276
  H     -0.266395    1.729345    1.330229
  H      0.149482    2.315003   -0.296617

 Total Charge           Charge          ....    0
 Multiplicity           Mult            ....    1
 Number of Electrons    NEL             ....   58
 Basis Dimension        Dim             ....  157

ORBITAL ENERGIES
----------------

  NO   OCC          E(Eh)            E(eV)
   0   2.0000     -10.071488      -274.0591
   1   2.0000     -10.028848      -272.8988
   2   2.0000     -10.019254      -272.6378
   3   2.0000     -10.007827      -272.3268
   4   2.0000      -6.800483      -185.0506
   5   2.0000      -4.817876      -131.1011
   6   2.0000      -4.803451      -130.7086
   7   2.0000      -4.803347      -130.7057
   8   2.0000      -1.853497       -50.4362
   9   2.0000      -1.849738       -50.3339
  10   2.0000      -1.849615       -50.3306
  11   2.0000      -1.838014       -50.0149
  12   2.0000      -1.838000       -50.0145
  13   2.0000      -0.768411       -20.9095
  14   2.0000      -0.703842       -19.1525
  15   2.0000      -0.643129       -17.5004
  16   2.0000      -0.581317       -15.8184
  17   2.0000      -0.535938       -14.5836
  18   2.0000      -0.429810       -11.6957
  19   2.0000      -0.414979       -11.2922
  20   2.0000      -0.397974       -10.8294
  21   2.0000      -0.363369        -9.8878
  22   2.0000      -0.341847        -9.3021
  23   2.0000      -0.321916        -8.7598
  24   2.0000      -0.299596        -8.1524
  25   2.0000      -0.294074        -8.0022
  26   2.0000      -0.282264        -7.6808
  27   2.0000      -0.231183        -6.2908
  28   2.0000      -0.230860        -6.2820
  29   0.0000      -0.044461        -1.2099
  30   0.0000       0.100763         2.7419
  31   0.0000       0.112233         3.0540
  32   0.0000       0.116198         3.1619
  33   0.0000       0.130335         3.5466

MULLIKEN ATOMIC CHARGES
-----------------------
   0 C :   -0.511910
   1 C :   -0.244947
   2 C :   -0.265108
   3 C :   -0.284956
   4 I :   -0.213867
   5 H :    0.154846
   6 H :    0.153657
   7 H :    0.157735
   8 H :    0.162911
   9 H :    0.153493
  10 H :    0.174878
  11 H :    0.169707
  12 H :    0.197794
  13 H :    0.195768
Sum of atomic charges:    0.0000000

LOEWDIN ATOMIC CHARGES
----------------------
   0 C :   -0.435934
   1 C :   -0.325823
   2 C :   -0.319763
   3 C :   -0.392610
   4 I :    0.017371
   5 H :    0.152451
   6 H :    0.152558
   7 H :    0.151841
   8 H :    0.158517
   9 H :    0.157139
  10 H :    0.165085
  11 H :    0.173438
  12 H :    0.173055
  13 H :    0.172675

  Mayer bond orders larger than 0.100000
B(  0-C ,  1-C ) :   0.8877 B(  0-C ,  5-H ) :   0.9756 B(  0-C ,  6-H ) :   0.9712
B(  0-C ,  7-H ) :   0.9796 B(  1-C ,  2-C ) :   0.8176 B(  1-C ,  8-H ) :   0.9860
B(  1-C ,  9-H ) :   0.9603 B(  2-C ,  3-C ) :   0.9196 B(  2-C , 10-H ) :   0.9859
B(  2-C , 11-H ) :   0.9407 B(  3-C ,  4-I ) :   0.8955 B(  3-C , 12-H ) :   0.9553
B(  3-C , 13-H ) :   0.9478

Dispersion correction           -0.003690680
FINAL SINGLE POINT ENERGY      -455.527006490751

DIPOLE MOMENT
-------------

Method             : SCF
Type of density    : Electron Density
Multiplicity       :   1
Irrep              :   0
Energy             :  -455.5296322300354745 Eh
Relativity type    :
Basis              : AO
                                X                 Y                 Z
Electronic contribution:     80.394607693     -21.688499967      -4.855420064
Nuclear contribution   :    -81.171097356      22.581619409       5.012123252
                        -----------------------------------------
Total Dipole Moment    :     -0.776489663       0.893119442       0.156703188
                        -----------------------------------------
Magnitude (a.u.)       :      1.193798317
Magnitude (Debye)      :      3.034394176

Rotational constants in cm-1:             0.171301             0.042506             0.036052
Rotational constants in MHz :          5135.473285          1274.297136          1080.823628

                             ****ORCA TERMINATED NORMALLY****
TOTAL RUN TIME: 0 days 0 hours 0 minutes 16 seconds 975 msec
