                         Program Version 6.0.0  -   RELEASE  -
|  1> ! pbe def2-sv(p) def2/J RI DEFGRID1 loosescf d4 GCP(DFT/SV(P)) printgap
|  2> %output
|  3>     printlevel normal
|  4> end
|  5> * xyz 0 1
|  6> C -3.0104079816 -0.9047458 -0.2728903331
|  7> C -2.342196339 0.4425600523 -0.5195084075
|  8> C -1.2532276759 0.755419298 0.5119757309
|  9> C 0.0112600716 -0.0375649575 0.2992071008
| 10> O 0.0797121043 -1.1864782089 -0.081662458
| 11> O 1.0805801184 0.693622946 0.6041695207
| 12> C 2.3805929778 0.0966587521 0.4643223166
| 13> C 2.897898187 0.2384167792 -0.9591200995
| 14> H -2.2701083646 -1.6998995792 -0.2952071281
| 15> H -3.5021704018 -0.9149097078 0.6968954413
| 16> H -3.7543659975 -1.1026823872 -1.0399003057
| 17> H -3.0933038576 1.2324887354 -0.4747159449
| 18> H -1.9025221726 0.4516451403 -1.5186913532
| 19> H -1.6213822378 0.5158486558 1.5124349712
| 20> H -0.9844672596 1.8114705871 0.492678685
| 21> H 3.0091336133 0.6384019724 1.171541834
| 22> H 2.3127008775 -0.9586332125 0.7457248808
| 23> H 2.2596534095 -0.3160674841 -1.6435195702
| 24> H 2.9060134581 1.284950992 -1.2514444691
| 25> H 3.9058914812 -0.1588446682 -1.0174847551
| 26> *
| 27>
| 28>                          ****END OF INPUT****

CARTESIAN COORDINATES (ANGSTROEM)
---------------------------------
  C     -3.010408   -0.904746   -0.272890
  C     -2.342196    0.442560   -0.519508
  C     -1.253228    0.755419    0.511976
  C      0.011260   -0.037565    0.299207
  O      0.079712   -1.186478   -0.081662
  O      1.080580    0.693623    0.604170
  C      2.380593    0.096659    0.464322
  C      2.897898    0.238417   -0.959120
  H     -2.270108   -1.699900   -0.295207
  H     -3.502170   -0.914910    0.696895
  H     -3.754366   -1.102682   -1.039900
  H     -3.093304    1.232489   -0.474716
  H     -1.902522    0.451645   -1.518691
  H     -1.621382    0.515849    1.512435
  H     -0.984467    1.811471    0.492679
  H      3.009134    0.638402    1.171542
  H      2.312701   -0.958633    0.745725
  H      2.259653   -0.316067   -1.643520
  H      2.906013    1.284951   -1.251444
  H      3.905891   -0.158845   -1.017485

 Total Charge           Charge          ....    0
 Multiplicity           Mult            ....    1
 Number of Electrons    NEL             ....   64
 Basis Dimension        Dim             ....  136

ORBITAL ENERGIES
----------------

  NO   OCC          E(Eh)            E(eV)
   0   2.0000     -18.797248      -511.4991
   1   2.0000     -18.734386      -509.7886
   2   2.0000     -10.007118      -272.3075
   3   2.0000      -9.946375      -270.6546
   4   2.0000      -9.897507      -269.3249
   5   2.0000      -9.889457      -269.1058
   6   2.0000      -9.886833      -269.0344
   7   2.0000      -9.866058      -268.4691
   8   2.0000      -1.004494       -27.3337
   9   2.0000      -0.910949       -24.7882
  10   2.0000      -0.724928       -19.7263
  11   2.0000      -0.696044       -18.9403
  12   2.0000      -0.635328       -17.2882
  13   2.0000      -0.586832       -15.9685
  14   2.0000      -0.531548       -14.4642
  15   2.0000      -0.492619       -13.4048
  16   2.0000      -0.453953       -12.3527
  17   2.0000      -0.429973       -11.7002
  18   2.0000      -0.421953       -11.4819
  19   2.0000      -0.400334       -10.8937
  20   2.0000      -0.384867       -10.4728
  21   2.0000      -0.372392       -10.1333
  22   2.0000      -0.366396        -9.9701
  23   2.0000      -0.351635        -9.5685
  24   2.0000      -0.332128        -9.0377
  25   2.0000      -0.326122        -8.8742
  26   2.0000      -0.301297        -8.1987
  27   2.0000      -0.298152        -8.1131
  28   2.0000      -0.295101        -8.0301
  29   2.0000      -0.287751        -7.8301
  30   2.0000      -0.256970        -6.9925
  31   2.0000      -0.217745        -5.9251
  32   0.0000      -0.020768        -0.5651
  33   0.0000       0.040824         1.1109
  34   0.0000       0.056877         1.5477
  35   0.0000       0.077075         2.0973
  36   0.0000       0.084637         2.3031

MULLIKEN ATOMIC CHARGES
-----------------------
   0 C :   -0.293983
   1 C :   -0.179965
   2 C :   -0.151547
   3 C :    0.108912
   4 O :   -0.204562
   5 O :   -0.238287
   6 C :   -0.012386
   7 C :   -0.304365
   8 H :    0.129448
   9 H :    0.090897
  10 H :    0.099493
  11 H :    0.088633
  12 H :    0.094893
  13 H :    0.114221
  14 H :    0.100581
  15 H :    0.101169
  16 H :    0.106307
  17 H :    0.126402
  18 H :    0.112441
  19 H :    0.111697
Sum of atomic charges:    0.0000000

LOEWDIN ATOMIC CHARGES
----------------------
   0 C :   -0.349624
   1 C :   -0.226008
   2 C :   -0.249686
   3 C :    0.043213
   4 O :   -0.167336
   5 O :   -0.069114
   6 C :   -0.113721
   7 C :   -0.356313
   8 H :    0.126634
   9 H :    0.113491
  10 H :    0.117697
  11 H :    0.117633
  12 H :    0.119723
  13 H :    0.142666
  14 H :    0.131430
  15 H :    0.116752
  16 H :    0.118606
  17 H :    0.130085
  18 H :    0.123967
  19 H :    0.129907

  Mayer bond orders larger than 0.100000
B(  0-C ,  1-C ) :   1.1476 B(  0-C ,  8-H ) :   0.9431 B(  0-C ,  9-H ) :   0.9535
B(  0-C , 10-H ) :   0.9504 B(  1-C ,  2-C ) :   1.0994 B(  1-C , 11-H ) :   0.9285
B(  1-C , 12-H ) :   0.9323 B(  2-C ,  3-C ) :   1.0258 B(  2-C , 13-H ) :   0.8906
B(  2-C , 14-H ) :   0.9088 B(  3-C ,  4-O ) :   2.0200 B(  3-C ,  5-O ) :   1.2182
B(  5-O ,  6-C ) :   0.9235 B(  6-C ,  7-C ) :   1.1724 B(  6-C , 15-H ) :   0.9374
B(  6-C , 16-H ) :   0.9139 B(  7-C , 17-H ) :   0.9467 B(  7-C , 18-H ) :   0.9491
B(  7-C , 19-H ) :   0.9446

Dispersion correction           -0.015099970
FINAL SINGLE POINT ENERGY      -385.457522633833

DIPOLE MOMENT
-------------

Method             : SCF
Type of density    : Electron Density
Multiplicity       :   1
Irrep              :   0
Energy             :  -385.5329851516324879 Eh
Relativity type    :
Basis              : AO
                                X                 Y                 Z
Electronic contribution:      2.882012341      -0.153566635       2.594383943
Nuclear contribution   :     -2.548612852       0.727997876      -2.451832286
                        -----------------------------------------
Total Dipole Moment    :      0.333399489       0.574431241       0.142551657
                        -----------------------------------------
Magnitude (a.u.)       :      0.679299231
Magnitude (Debye)      :      1.726641426

Rotational constants in cm-1:             0.164939             0.032812             0.031093
Rotational constants in MHz :          4944.759407           983.684292           932.157792

                             ****ORCA TERMINATED NORMALLY****
TOTAL RUN TIME: 0 days 0 hours 0 minutes 11 seconds 976 msec
