                         Program Version 6.0.0  -   RELEASE  -
|  1> ! r2scan-3c def2/J RI DEFGRID2 scfconv6 printgap
|  2> %output
|  3>     printlevel normal
|  4> end
|  5> * xyz 0 1
|  6> C -3.5873156647 -0.9062031459 0.6281057848
|  7> C -2.6699320837 -0.003019313 -0.1877812756
|  8> C -1.2056389583 -0.1904644827 0.2037757607
|  9> C -0.2893023242 0.7213902626 -0.6133776802
| 10> C 1.1678166737 0.5872808027 -0.2545507337
| 11> O 1.9498831783 1.5170701465 -0.2318343562
| 12> O 1.5076893424 -0.6639297263 0.0197644177
| 13> C 2.8653325402 -0.9560471741 0.3634291964
| 14> H -3.3294100676 -1.9510424037 0.4728127551
| 15> H -3.4947565865 -0.6849074764 1.6887718245
| 16> H -4.6239218666 -0.7602129859 0.3358662734
| 17> H -2.7914984108 -0.2262737956 -1.2494356497
| 18> H -2.9548575311 1.0395020655 -0.0323848849
| 19> H -0.9140038453 -1.2294354215 0.0461281853
| 20> H -1.0833374321 0.033396196 1.2654375185
| 21> H -0.5648976639 1.7696253418 -0.4898855118
| 22> H -0.3800216152 0.4739313192 -1.6741879569
| 23> H 3.4052134361 -0.030153449 0.5647247374
| 24> H 3.3252861737 -1.4837071488 -0.4710511086
| 25> H 2.8399800425 -1.5908259657 1.2459952985
| 26> *
| 27>
| 28>                          ****END OF INPUT****

CARTESIAN COORDINATES (ANGSTROEM)
---------------------------------
  C     -3.587316   -0.906203    0.628106
  C     -2.669932   -0.003019   -0.187781
  C     -1.205639   -0.190464    0.203776
  C     -0.289302    0.721390   -0.613378
  C      1.167817    0.587281   -0.254551
  O      1.949883    1.517070   -0.231834
  O      1.507689   -0.663930    0.019764
  C      2.865333   -0.956047    0.363429
  H     -3.329410   -1.951042    0.472813
  H     -3.494757   -0.684907    1.688772
  H     -4.623922   -0.760213    0.335866
  H     -2.791498   -0.226274   -1.249436
  H     -2.954858    1.039502   -0.032385
  H     -0.914004   -1.229435    0.046128
  H     -1.083337    0.033396    1.265438
  H     -0.564898    1.769625   -0.489886
  H     -0.380022    0.473931   -1.674188
  H      3.405213   -0.030153    0.564725
  H      3.325286   -1.483707   -0.471051
  H      2.839980   -1.590826    1.245995

 Total Charge           Charge          ....    0
 Multiplicity           Mult            ....    1
 Number of Electrons    NEL             ....   64
 Basis Dimension        Dim             ....  222

ORBITAL ENERGIES
----------------

  NO   OCC          E(Eh)            E(eV)
   0   2.0000     -19.000156      -517.0205
   1   2.0000     -18.926238      -515.0091
   2   2.0000     -10.152741      -276.2701
   3   2.0000     -10.085985      -274.4536
   4   2.0000     -10.042679      -273.2752
   5   2.0000     -10.032556      -272.9997
   6   2.0000     -10.030090      -272.9326
   7   2.0000     -10.019556      -272.6460
   8   2.0000      -1.073429       -29.2095
   9   2.0000      -0.974522       -26.5181
  10   2.0000      -0.779773       -21.2187
  11   2.0000      -0.729410       -19.8483
  12   2.0000      -0.685205       -18.6454
  13   2.0000      -0.619316       -16.8525
  14   2.0000      -0.554336       -15.0842
  15   2.0000      -0.535383       -14.5685
  16   2.0000      -0.467160       -12.7121
  17   2.0000      -0.462492       -12.5850
  18   2.0000      -0.446166       -12.1408
  19   2.0000      -0.433061       -11.7842
  20   2.0000      -0.405172       -11.0253
  21   2.0000      -0.393889       -10.7183
  22   2.0000      -0.386880       -10.5275
  23   2.0000      -0.362982        -9.8772
  24   2.0000      -0.347542        -9.4571
  25   2.0000      -0.330919        -9.0048
  26   2.0000      -0.319958        -8.7065
  27   2.0000      -0.309687        -8.4270
  28   2.0000      -0.308905        -8.4057
  29   2.0000      -0.299211        -8.1419
  30   2.0000      -0.272067        -7.4033
  31   2.0000      -0.232732        -6.3330
  32   0.0000      -0.012943        -0.3522
  33   0.0000       0.065777         1.7899
  34   0.0000       0.095827         2.6076
  35   0.0000       0.099116         2.6971
  36   0.0000       0.116883         3.1805

MULLIKEN ATOMIC CHARGES
-----------------------
   0 C :   -0.467998
   1 C :   -0.228398
   2 C :   -0.283248
   3 C :   -0.334405
   4 C :    0.387490
   5 O :   -0.430867
   6 O :   -0.178532
   7 C :   -0.300334
   8 H :    0.142986
   9 H :    0.142284
  10 H :    0.148406
  11 H :    0.136067
  12 H :    0.137420
  13 H :    0.159058
  14 H :    0.142155
  15 H :    0.170348
  16 H :    0.171530
  17 H :    0.189252
  18 H :    0.148894
  19 H :    0.147895
Sum of atomic charges:   -0.0000000

LOEWDIN ATOMIC CHARGES
----------------------
   0 C :   -0.423314
   1 C :   -0.314390
   2 C :   -0.288302
   3 C :   -0.225208
   4 C :    0.359901
   5 O :   -0.439176
   6 O :   -0.609586
   7 C :   -0.044439
   8 H :    0.150229
   9 H :    0.150362
  10 H :    0.150864
  11 H :    0.151633
  12 H :    0.152061
  13 H :    0.168074
  14 H :    0.158910
  15 H :    0.180320
  16 H :    0.182128
  17 H :    0.193170
  18 H :    0.172709
  19 H :    0.174054

  Mayer bond orders larger than 0.100000
B(  0-C ,  1-C ) :   0.8986 B(  0-C ,  8-H ) :   0.9847 B(  0-C ,  9-H ) :   0.9815
B(  0-C , 10-H ) :   0.9750 B(  1-C ,  2-C ) :   0.9101 B(  1-C , 11-H ) :   0.9789
B(  1-C , 12-H ) :   0.9666 B(  2-C ,  3-C ) :   0.8982 B(  2-C , 13-H ) :   0.9722
B(  2-C , 14-H ) :   0.9692 B(  3-C ,  4-C ) :   1.0167 B(  3-C , 15-H ) :   0.9857
B(  3-C , 16-H ) :   0.9440 B(  4-C ,  5-O ) :   1.8621 B(  4-C ,  6-O ) :   1.0534
B(  6-O ,  7-C ) :   0.8380 B(  7-C , 17-H ) :   0.9689 B(  7-C , 18-H ) :   0.9620
B(  7-C , 19-H ) :   0.9676

Dispersion correction           -0.004925146
FINAL SINGLE POINT ENERGY      -386.228501932876

DIPOLE MOMENT
-------------

Method             : SCF
Type of density    : Electron Density
Multiplicity       :   1
Irrep              :   0
Energy             :  -386.2356511669191832 Eh
Relativity type    :
Basis              : AO
                                X                 Y                 Z
Electronic contribution:      9.527593305       3.528133737      -1.520997004
Nuclear contribution   :     -9.861611309      -4.340540284       1.594357654
                        -----------------------------------------
Total Dipole Moment    :     -0.334018004      -0.812406548       0.073360650
                        -----------------------------------------
Magnitude (a.u.)       :      0.881450061
Magnitude (Debye)      :      2.240468002

Rotational constants in cm-1:             0.152332             0.028802             0.025216
Rotational constants in MHz :          4566.785164           863.455408           755.971496

                             ****ORCA TERMINATED NORMALLY****
TOTAL RUN TIME: 0 days 0 hours 0 minutes 27 seconds 686 msec
