                         Program Version 6.0.0  -   RELEASE  -
|  1> ! r2scan-3c def2/J RI DEFGRID2 scfconv6 printgap
|  2> %output
|  3>     printlevel normal
|  4> end
|  5> %cpcm
|  6>     smd true
|  7>     smdsolvent "water"
|  8> end
|  9> * xyz 0 1
| 10> C -3.5873156647 -0.9062031459 0.6281057848
| 11> C -2.6699320837 -0.003019313 -0.1877812756
| 12> C -1.2056389583 -0.1904644827 0.2037757607
| 13> C -0.2893023242 0.7213902626 -0.6133776802
| 14> C 1.1678166737 0.5872808027 -0.2545507337
| 15> O 1.9498831783 1.5170701465 -0.2318343562
| 16> O 1.5076893424 -0.6639297263 0.0197644177
| 17> C 2.8653325402 -0.9560471741 0.3634291964
| 18> H -3.3294100676 -1.9510424037 0.4728127551
| 19> H -3.4947565865 -0.6849074764 1.6887718245
| 20> H -4.6239218666 -0.7602129859 0.3358662734
| 21> H -2.7914984108 -0.2262737956 -1.2494356497
| 22> H -2.9548575311 1.0395020655 -0.0323848849
| 23> H -0.9140038453 -1.2294354215 0.0461281853
| 24> H -1.0833374321 0.033396196 1.2654375185
| 25> H -0.5648976639 1.7696253418 -0.4898855118
| 26> H -0.3800216152 0.4739313192 -1.6741879569
| 27> H 3.4052134361 -0.030153449 0.5647247374
| 28> H 3.3252861737 -1.4837071488 -0.4710511086
| 29> H 2.8399800425 -1.5908259657 1.2459952985
| 30> *
| 31>
| 32>                          ****END OF INPUT****

CARTESIAN COORDINATES (ANGSTROEM)
---------------------------------
  C     -3.587316   -0.906203    0.628106
  C     -2.669932   -0.003019   -0.187781
  C     -1.205639   -0.190464    0.203776
  C     -0.289302    0.721390   -0.613378
  C      1.167817    0.587281   -0.254551
  O      1.949883    1.517070   -0.231834
  O      1.507689   -0.663930    0.019764
  C      2.865333   -0.956047    0.363429
  H     -3.329410   -1.951042    0.472813
  H     -3.494757   -0.684907    1.688772
  H     -4.623922   -0.760213    0.335866
  H     -2.791498   -0.226274   -1.249436
  H     -2.954858    1.039502   -0.032385
  H     -0.914004   -1.229435    0.046128
  H     -1.083337    0.033396    1.265438
  H     -0.564898    1.769625   -0.489886
  H     -0.380022    0.473931   -1.674188
  H      3.405213   -0.030153    0.564725
  H      3.325286   -1.483707   -0.471051
  H      2.839980   -1.590826    1.245995

 Total Charge           Charge          ....    0
 Multiplicity           Mult            ....    1
 Number of Electrons    NEL             ....   64
 Basis Dimension        Dim             ....  222

ORBITAL ENERGIES
----------------

  NO   OCC          E(Eh)            E(eV)
   0   2.0000     -19.004547      -517.1400
   1   2.0000     -18.941898      -515.4353
   2   2.0000     -10.162912      -276.5469
   3   2.0000     -10.075343      -274.1640
   4   2.0000     -10.035902      -273.0908
   5   2.0000     -10.023038      -272.7407
   6   2.0000     -10.018246      -272.6103
   7   2.0000     -10.008297      -272.3396
   8   2.0000      -1.079548       -29.3760
   9   2.0000      -0.988066       -26.8866
  10   2.0000      -0.771667       -20.9981
  11   2.0000      -0.722616       -19.6634
  12   2.0000      -0.677596       -18.4383
  13   2.0000      -0.611554       -16.6412
  14   2.0000      -0.544268       -14.8103
  15   2.0000      -0.532685       -14.4951
  16   2.0000      -0.466028       -12.6813
  17   2.0000      -0.460463       -12.5298
  18   2.0000      -0.451135       -12.2760
  19   2.0000      -0.432397       -11.7661
  20   2.0000      -0.395731       -10.7684
  21   2.0000      -0.388919       -10.5830
  22   2.0000      -0.381518       -10.3816
  23   2.0000      -0.360036        -9.7971
  24   2.0000      -0.340217        -9.2578
  25   2.0000      -0.325770        -8.8646
  26   2.0000      -0.315334        -8.5807
  27   2.0000      -0.305545        -8.3143
  28   2.0000      -0.299210        -8.1419
  29   2.0000      -0.288342        -7.8462
  30   2.0000      -0.279074        -7.5940
  31   2.0000      -0.247254        -6.7281
  32   0.0000      -0.020453        -0.5566
  33   0.0000       0.071734         1.9520
  34   0.0000       0.103140         2.8066
  35   0.0000       0.110575         3.0089
  36   0.0000       0.128698         3.5020

MULLIKEN ATOMIC CHARGES
-----------------------
   0 C :   -0.511659
   1 C :   -0.245709
   2 C :   -0.285075
   3 C :   -0.356123
   4 C :    0.429212
   5 O :   -0.520030
   6 O :   -0.194014
   7 C :   -0.315506
   8 H :    0.154317
   9 H :    0.153671
  10 H :    0.157959
  11 H :    0.148815
  12 H :    0.148495
  13 H :    0.160783
  14 H :    0.157752
  15 H :    0.178960
  16 H :    0.202425
  17 H :    0.184026
  18 H :    0.176819
  19 H :    0.174881
Sum of atomic charges:   -0.0000000

LOEWDIN ATOMIC CHARGES
----------------------
   0 C :   -0.431829
   1 C :   -0.314086
   2 C :   -0.287134
   3 C :   -0.224119
   4 C :    0.369775
   5 O :   -0.503290
   6 O :   -0.609595
   7 C :   -0.039012
   8 H :    0.152637
   9 H :    0.152725
  10 H :    0.152995
  11 H :    0.155230
  12 H :    0.155142
  13 H :    0.168154
  14 H :    0.162846
  15 H :    0.184026
  16 H :    0.194526
  17 H :    0.191568
  18 H :    0.183708
  19 H :    0.185734

  Mayer bond orders larger than 0.100000
B(  0-C ,  1-C ) :   0.8868 B(  0-C ,  8-H ) :   0.9824 B(  0-C ,  9-H ) :   0.9794
B(  0-C , 10-H ) :   0.9726 B(  1-C ,  2-C ) :   0.9084 B(  1-C , 11-H ) :   0.9789
B(  1-C , 12-H ) :   0.9671 B(  2-C ,  3-C ) :   0.8923 B(  2-C , 13-H ) :   0.9693
B(  2-C , 14-H ) :   0.9677 B(  3-C ,  4-C ) :   1.0145 B(  3-C , 15-H ) :   0.9849
B(  3-C , 16-H ) :   0.9266 B(  4-C ,  5-O ) :   1.7934 B(  4-C ,  6-O ) :   1.0841
B(  6-O ,  7-C ) :   0.8246 B(  7-C , 17-H ) :   0.9653 B(  7-C , 18-H ) :   0.9533
B(  7-C , 19-H ) :   0.9578

Dispersion correction           -0.004925146
FINAL SINGLE POINT ENERGY      -386.232916655594

DIPOLE MOMENT
-------------

Method             : SCF
Type of density    : Electron Density
Multiplicity       :   1
Irrep              :   0
Energy             :  -386.2400658896373784 Eh
Relativity type    :
Basis              : AO
                                X                 Y                 Z
Electronic contribution:      9.389509692       3.225149615      -1.526770483
Nuclear contribution   :     -9.861611309      -4.340540284       1.594357654
                        -----------------------------------------
Total Dipole Moment    :     -0.472101617      -1.115390670       0.067587171
                        -----------------------------------------
Magnitude (a.u.)       :      1.213072260
Magnitude (Debye)      :      3.083384645

Rotational constants in cm-1:             0.152332             0.028802             0.025216
Rotational constants in MHz :          4566.785164           863.455408           755.971496

                             ****ORCA TERMINATED NORMALLY****
TOTAL RUN TIME: 0 days 0 hours 0 minutes 32 seconds 853 msec
