                         Program Version 6.0.0  -   RELEASE  -
|  1> ! pbe def2-sv(p) def2/J RI DEFGRID1 loosescf d4 GCP(DFT/SV(P)) printgap
|  2> %output
|  3>     printlevel normal
|  4> end
|  5> * xyz 0 1
|  6> C -3.2144762912 -1.0568038155 0.0496376285
|  7> C -2.7234837401 0.3471041517 0.3836597133
|  8> C -1.2120213051 0.4198972849 0.6002042277
|  9> C -0.4182681314 0.1287949761 -0.6830153114
| 10> C 1.0448882028 0.3317568213 -0.4042683999
| 11> O 1.657394991 1.3626571816 -0.5921302757
| 12> O 1.5996231049 -0.7561828192 0.1186587023
| 13> C 2.9796844873 -0.6858292056 0.4854491661
| 14> H -2.8343530609 -1.3860058043 -0.9133211103
| 15> H -2.8912453605 -1.763268998 0.8104748895
| 16> H -4.3005085362 -1.0720422455 0.0066341888
| 17> H -3.0068301727 1.0337326642 -0.4160560217
| 18> H -3.212306469 0.6849554189 1.2994933206
| 19> H -0.9176379845 -0.2969145735 1.3692534226
| 20> H -0.9493392372 1.420776463 0.9510148221
| 21> H -0.7241752269 0.8169856585 -1.4703958005
| 22> H -0.5766068921 -0.9019700052 -0.9937867773
| 23> H 3.2408779389 -1.6793422906 0.8355770137
| 24> H 3.1187012071 0.0566118781 1.2720783441
| 25> H 3.5810222189 -0.4025573467 -0.3791948235
| 26> *
| 27>
| 28>                          ****END OF INPUT****

CARTESIAN COORDINATES (ANGSTROEM)
---------------------------------
  C     -3.214476   -1.056804    0.049638
  C     -2.723484    0.347104    0.383660
  C     -1.212021    0.419897    0.600204
  C     -0.418268    0.128795   -0.683015
  C      1.044888    0.331757   -0.404268
  O      1.657395    1.362657   -0.592130
  O      1.599623   -0.756183    0.118659
  C      2.979684   -0.685829    0.485449
  H     -2.834353   -1.386006   -0.913321
  H     -2.891245   -1.763269    0.810475
  H     -4.300509   -1.072042    0.006634
  H     -3.006830    1.033733   -0.416056
  H     -3.212306    0.684955    1.299493
  H     -0.917638   -0.296915    1.369253
  H     -0.949339    1.420776    0.951015
  H     -0.724175    0.816986   -1.470396
  H     -0.576607   -0.901970   -0.993787
  H      3.240878   -1.679342    0.835577
  H      3.118701    0.056612    1.272078
  H      3.581022   -0.402557   -0.379195

 Total Charge           Charge          ....    0
 Multiplicity           Mult            ....    1
 Number of Electrons    NEL             ....   64
 Basis Dimension        Dim             ....  136

ORBITAL ENERGIES
----------------

  NO   OCC          E(Eh)            E(eV)
   0   2.0000     -18.797367      -511.5024
   1   2.0000     -18.730139      -509.6730
   2   2.0000     -10.000693      -272.1327
   3   2.0000      -9.939737      -270.4740
   4   2.0000      -9.894539      -269.2441
   5   2.0000      -9.893923      -269.2273
   6   2.0000      -9.889092      -269.0959
   7   2.0000      -9.877838      -268.7896
   8   2.0000      -1.003243       -27.2996
   9   2.0000      -0.905658       -24.6442
  10   2.0000      -0.733937       -19.9715
  11   2.0000      -0.685241       -18.6463
  12   2.0000      -0.643404       -17.5079
  13   2.0000      -0.586688       -15.9646
  14   2.0000      -0.517439       -14.0802
  15   2.0000      -0.505800       -13.7635
  16   2.0000      -0.450571       -12.2607
  17   2.0000      -0.434082       -11.8120
  18   2.0000      -0.425684       -11.5834
  19   2.0000      -0.407274       -11.0825
  20   2.0000      -0.387602       -10.5472
  21   2.0000      -0.379823       -10.3355
  22   2.0000      -0.361145        -9.8273
  23   2.0000      -0.356892        -9.7115
  24   2.0000      -0.336487        -9.1563
  25   2.0000      -0.321994        -8.7619
  26   2.0000      -0.305676        -8.3179
  27   2.0000      -0.294438        -8.0121
  28   2.0000      -0.292249        -7.9525
  29   2.0000      -0.285292        -7.7632
  30   2.0000      -0.255512        -6.9528
  31   2.0000      -0.213679        -5.8145
  32   0.0000      -0.016656        -0.4532
  33   0.0000       0.037070         1.0087
  34   0.0000       0.057071         1.5530
  35   0.0000       0.066804         1.8178
  36   0.0000       0.070218         1.9107

MULLIKEN ATOMIC CHARGES
-----------------------
   0 C :   -0.296982
   1 C :   -0.143342
   2 C :   -0.217514
   3 C :   -0.121284
   4 C :    0.103253
   5 O :   -0.213548
   6 O :   -0.244461
   7 C :   -0.107187
   8 H :    0.110084
   9 H :    0.100345
  10 H :    0.106005
  11 H :    0.086267
  12 H :    0.089299
  13 H :    0.092948
  14 H :    0.099901
  15 H :    0.096638
  16 H :    0.101720
  17 H :    0.120244
  18 H :    0.117767
  19 H :    0.119844
Sum of atomic charges:    0.0000000

LOEWDIN ATOMIC CHARGES
----------------------
   0 C :   -0.343543
   1 C :   -0.233081
   2 C :   -0.218634
   3 C :   -0.242728
   4 C :    0.035034
   5 O :   -0.172140
   6 O :   -0.076682
   7 C :   -0.203486
   8 H :    0.117059
   9 H :    0.118229
  10 H :    0.121367
  11 H :    0.116237
  12 H :    0.118639
  13 H :    0.117610
  14 H :    0.122176
  15 H :    0.134119
  16 H :    0.130901
  17 H :    0.119977
  18 H :    0.118939
  19 H :    0.120008

  Mayer bond orders larger than 0.100000
B(  0-C ,  1-C ) :   1.1514 B(  0-C ,  8-H ) :   0.9515 B(  0-C ,  9-H ) :   0.9547
B(  0-C , 10-H ) :   0.9514 B(  1-C ,  2-C ) :   1.1252 B(  1-C , 11-H ) :   0.9240
B(  1-C , 12-H ) :   0.9254 B(  2-C ,  3-C ) :   1.1266 B(  2-C , 13-H ) :   0.9213
B(  2-C , 14-H ) :   0.9218 B(  3-C ,  4-C ) :   1.0301 B(  3-C , 15-H ) :   0.9017
B(  3-C , 16-H ) :   0.8918 B(  4-C ,  5-O ) :   2.0599 B(  4-C ,  6-O ) :   1.2060
B(  6-O ,  7-C ) :   0.9404 B(  7-C , 17-H ) :   0.9591 B(  7-C , 18-H ) :   0.9532
B(  7-C , 19-H ) :   0.9508

Dispersion correction           -0.014942225
FINAL SINGLE POINT ENERGY      -385.451895212329

DIPOLE MOMENT
-------------

Method             : SCF
Type of density    : Electron Density
Multiplicity       :   1
Irrep              :   0
Energy             :  -385.5267072013547818 Eh
Relativity type    :
Basis              : AO
                                X                 Y                 Z
Electronic contribution:      8.667094590       2.604454453      -1.907560414
Nuclear contribution   :     -8.838396108      -3.264307468       2.218096293
                        -----------------------------------------
Total Dipole Moment    :     -0.171301518      -0.659853015       0.310535879
                        -----------------------------------------
Magnitude (a.u.)       :      0.749121314
Magnitude (Debye)      :      1.904115058

Rotational constants in cm-1:             0.153190             0.030228             0.027550
Rotational constants in MHz :          4592.529558           906.224008           825.929787

                             ****ORCA TERMINATED NORMALLY****
TOTAL RUN TIME: 0 days 0 hours 0 minutes 9 seconds 929 msec
