                         Program Version 6.0.0  -   RELEASE  -
|  1> ! pbe def2-sv(p) def2/J RI DEFGRID1 loosescf d4 GCP(DFT/SV(P)) printgap
|  2> %output
|  3>     printlevel normal
|  4> end
|  5> * xyz 0 1
|  6> C -2.7384549626 -1.175829319 -0.0695499307
|  7> C -2.5243230556 0.332732482 -0.0390115962
|  8> C -1.2299529324 0.7024979465 0.6877574997
|  9> C -0.0140840003 0.2633818938 -0.0879391075
| 10> O 0.1158948265 0.3531575041 -1.2906583842
| 11> O 0.9163390248 -0.2394748912 0.7162564701
| 12> C 2.1629574973 -0.6652234727 0.1409906642
| 13> C 3.1326792824 0.4984865433 0.0037928618
| 14> H -3.6688348296 -1.4165320493 -0.5767099721
| 15> H -1.923208798 -1.6623418074 -0.6018761498
| 16> H -2.7797465952 -1.5775345344 0.9401363205
| 17> H -3.3633289092 0.8119589718 0.4658585194
| 18> H -2.4718083945 0.7145570952 -1.0602506715
| 19> H -1.1878644554 0.2548150812 1.6802046379
| 20> H -1.1644731766 1.7878817392 0.7903347582
| 21> H 2.540818738 -1.4177610838 0.8335706992
| 22> H 1.9605797391 -1.1144598703 -0.8361679301
| 23> H 4.0852217062 0.1312144824 -0.3638684985
| 24> H 2.7404866485 1.2290098158 -0.700317996
| 25> H 3.2799197439 0.9783875259 0.9675373625
| 26> *
| 27>
| 28>                          ****END OF INPUT****

CARTESIAN COORDINATES (ANGSTROEM)
---------------------------------
  C     -2.738455   -1.175829   -0.069550
  C     -2.524323    0.332732   -0.039012
  C     -1.229953    0.702498    0.687757
  C     -0.014084    0.263382   -0.087939
  O      0.115895    0.353158   -1.290658
  O      0.916339   -0.239475    0.716256
  C      2.162957   -0.665223    0.140991
  C      3.132679    0.498487    0.003793
  H     -3.668835   -1.416532   -0.576710
  H     -1.923209   -1.662342   -0.601876
  H     -2.779747   -1.577535    0.940136
  H     -3.363329    0.811959    0.465859
  H     -2.471808    0.714557   -1.060251
  H     -1.187864    0.254815    1.680205
  H     -1.164473    1.787882    0.790335
  H      2.540819   -1.417761    0.833571
  H      1.960580   -1.114460   -0.836168
  H      4.085222    0.131214   -0.363868
  H      2.740487    1.229010   -0.700318
  H      3.279920    0.978388    0.967537

 Total Charge           Charge          ....    0
 Multiplicity           Mult            ....    1
 Number of Electrons    NEL             ....   64
 Basis Dimension        Dim             ....  136

ORBITAL ENERGIES
----------------

  NO   OCC          E(Eh)            E(eV)
   0   2.0000     -18.797428      -511.5040
   1   2.0000     -18.732269      -509.7309
   2   2.0000     -10.005297      -272.2580
   3   2.0000      -9.946243      -270.6510
   4   2.0000      -9.896360      -269.2937
   5   2.0000      -9.888426      -269.0777
   6   2.0000      -9.886749      -269.0321
   7   2.0000      -9.874865      -268.7087
   8   2.0000      -1.003832       -27.3156
   9   2.0000      -0.909290       -24.7430
  10   2.0000      -0.726092       -19.7580
  11   2.0000      -0.696242       -18.9457
  12   2.0000      -0.636494       -17.3199
  13   2.0000      -0.590109       -16.0577
  14   2.0000      -0.530851       -14.4452
  15   2.0000      -0.491843       -13.3837
  16   2.0000      -0.452504       -12.3133
  17   2.0000      -0.433701       -11.8016
  18   2.0000      -0.422672       -11.5015
  19   2.0000      -0.397164       -10.8074
  20   2.0000      -0.390918       -10.6374
  21   2.0000      -0.373662       -10.1679
  22   2.0000      -0.362450        -9.8628
  23   2.0000      -0.349373        -9.5069
  24   2.0000      -0.337266        -9.1775
  25   2.0000      -0.328931        -8.9507
  26   2.0000      -0.303462        -8.2576
  27   2.0000      -0.297345        -8.0912
  28   2.0000      -0.295303        -8.0356
  29   2.0000      -0.287668        -7.8278
  30   2.0000      -0.256048        -6.9674
  31   2.0000      -0.218937        -5.9576
  32   0.0000      -0.020385        -0.5547
  33   0.0000       0.040915         1.1134
  34   0.0000       0.055318         1.5053
  35   0.0000       0.077533         2.1098
  36   0.0000       0.082539         2.2460

MULLIKEN ATOMIC CHARGES
-----------------------
   0 C :   -0.291023
   1 C :   -0.188183
   2 C :   -0.136226
   3 C :    0.095617
   4 O :   -0.211749
   5 O :   -0.234787
   6 C :   -0.013479
   7 C :   -0.304657
   8 H :    0.106881
   9 H :    0.115956
  10 H :    0.097375
  11 H :    0.088015
  12 H :    0.107194
  13 H :    0.094863
  14 H :    0.115203
  15 H :    0.100995
  16 H :    0.106925
  17 H :    0.111929
  18 H :    0.126563
  19 H :    0.112587
Sum of atomic charges:   -0.0000000

LOEWDIN ATOMIC CHARGES
----------------------
   0 C :   -0.342455
   1 C :   -0.229620
   2 C :   -0.248743
   3 C :    0.038074
   4 O :   -0.172955
   5 O :   -0.067059
   6 C :   -0.113532
   7 C :   -0.356413
   8 H :    0.121358
   9 H :    0.121032
  10 H :    0.116212
  11 H :    0.117462
  12 H :    0.125181
  13 H :    0.128042
  14 H :    0.143628
  15 H :    0.116691
  16 H :    0.118745
  17 H :    0.130033
  18 H :    0.130277
  19 H :    0.124043

  Mayer bond orders larger than 0.100000
B(  0-C ,  1-C ) :   1.1549 B(  0-C ,  8-H ) :   0.9527 B(  0-C ,  9-H ) :   0.9508
B(  0-C , 10-H ) :   0.9538 B(  1-C ,  2-C ) :   1.1127 B(  1-C , 11-H ) :   0.9267
B(  1-C , 12-H ) :   0.9172 B(  2-C ,  3-C ) :   1.0184 B(  2-C , 13-H ) :   0.9108
B(  2-C , 14-H ) :   0.8898 B(  3-C ,  4-O ) :   2.0288 B(  3-C ,  5-O ) :   1.2211
B(  5-O ,  6-C ) :   0.9241 B(  6-C ,  7-C ) :   1.1723 B(  6-C , 15-H ) :   0.9374
B(  6-C , 16-H ) :   0.9142 B(  7-C , 17-H ) :   0.9445 B(  7-C , 18-H ) :   0.9462
B(  7-C , 19-H ) :   0.9492

Dispersion correction           -0.015191361
FINAL SINGLE POINT ENERGY      -385.458931820561

DIPOLE MOMENT
-------------

Method             : SCF
Type of density    : Electron Density
Multiplicity       :   1
Irrep              :   0
Energy             :  -385.5339862304206235 Eh
Relativity type    :
Basis              : AO
                                X                 Y                 Z
Electronic contribution:      2.068297178       1.104977511      -0.845333788
Nuclear contribution   :     -1.816219090      -1.199922550       1.434806243
                        -----------------------------------------
Total Dipole Moment    :      0.252078087      -0.094945040       0.589472455
                        -----------------------------------------
Magnitude (a.u.)       :      0.648101611
Magnitude (Debye)      :      1.647343378

Rotational constants in cm-1:             0.164671             0.032884             0.032435
Rotational constants in MHz :          4936.711394           985.848041           972.389637

                             ****ORCA TERMINATED NORMALLY****
TOTAL RUN TIME: 0 days 0 hours 0 minutes 10 seconds 647 msec
