                         Program Version 6.0.0  -   RELEASE  -
|  1> ! r2scan-3c def2/J RI DEFGRID2 scfconv6 printgap
|  2> %output
|  3>     printlevel normal
|  4> end
|  5> * xyz 0 1
|  6> C -2.0244586576 -0.8129753878 -0.4391751143
|  7> C -1.5215031403 0.248179058 0.5336451337
|  8> C -0.2845031522 0.9619953185 0.0048996029
|  9> N 0.8993830892 0.1048984126 -0.0146706613
| 10> O 1.7965001194 0.4188771833 -0.7748392887
| 11> O 0.9527772281 -0.8517774836 0.7265882456
| 12> H -2.9272869774 -1.2766262445 -0.0527964556
| 13> H -2.2513303376 -0.3727762915 -1.4071774087
| 14> H -1.2789729964 -1.5934141997 -0.5769551493
| 15> H -1.286590326 -0.2166947553 1.4918213482
| 16> H -2.2987889623 0.994060956 0.695520336
| 17> H -0.4224557491 1.3358122216 -1.0116849892
| 18> H -0.0287337882 1.8104462971 0.6469475022
| 19> *
| 20>
| 21>                          ****END OF INPUT****

CARTESIAN COORDINATES (ANGSTROEM)
---------------------------------
  C     -2.024459   -0.812975   -0.439175
  C     -1.521503    0.248179    0.533645
  C     -0.284503    0.961995    0.004900
  N      0.899383    0.104898   -0.014671
  O      1.796500    0.418877   -0.774839
  O      0.952777   -0.851777    0.726588
  H     -2.927287   -1.276626   -0.052796
  H     -2.251330   -0.372776   -1.407177
  H     -1.278973   -1.593414   -0.576955
  H     -1.286590   -0.216695    1.491821
  H     -2.298789    0.994061    0.695520
  H     -0.422456    1.335812   -1.011685
  H     -0.028734    1.810446    0.646948

 Total Charge           Charge          ....    0
 Multiplicity           Mult            ....    1
 Number of Electrons    NEL             ....   48
 Basis Dimension        Dim             ....  164

ORBITAL ENERGIES
----------------

  NO   OCC          E(Eh)            E(eV)
   0   2.0000     -18.987001      -516.6626
   1   2.0000     -18.982561      -516.5418
   2   2.0000     -14.392262      -391.6333
   3   2.0000     -10.098252      -274.7874
   4   2.0000     -10.054211      -273.5890
   5   2.0000     -10.033284      -273.0196
   6   2.0000      -1.207316       -32.8527
   7   2.0000      -1.027999       -27.9733
   8   2.0000      -0.816433       -22.2163
   9   2.0000      -0.726280       -19.7631
  10   2.0000      -0.622287       -16.9333
  11   2.0000      -0.559033       -15.2121
  12   2.0000      -0.527127       -14.3438
  13   2.0000      -0.513244       -13.9661
  14   2.0000      -0.484224       -13.1764
  15   2.0000      -0.432992       -11.7823
  16   2.0000      -0.424819       -11.5599
  17   2.0000      -0.395888       -10.7727
  18   2.0000      -0.343148        -9.3375
  19   2.0000      -0.339176        -9.2294
  20   2.0000      -0.331431        -9.0187
  21   2.0000      -0.292788        -7.9672
  22   2.0000      -0.277695        -7.5565
  23   2.0000      -0.256943        -6.9918
  24   0.0000      -0.101839        -2.7712
  25   0.0000       0.068715         1.8698
  26   0.0000       0.091433         2.4880
  27   0.0000       0.111933         3.0458
  28   0.0000       0.119784         3.2595

MULLIKEN ATOMIC CHARGES
-----------------------
   0 C :   -0.492149
   1 C :   -0.160007
   2 C :   -0.331146
   3 N :    0.228692
   4 O :   -0.187580
   5 O :   -0.199917
   6 H :    0.153306
   7 H :    0.139863
   8 H :    0.170002
   9 H :    0.160101
  10 H :    0.147197
  11 H :    0.192102
  12 H :    0.179535
Sum of atomic charges:   -0.0000000

LOEWDIN ATOMIC CHARGES
----------------------
   0 C :   -0.413802
   1 C :   -0.276929
   2 C :    0.023225
   3 N :   -0.535212
   4 O :   -0.005756
   5 O :   -0.012986
   6 H :    0.156333
   7 H :    0.151399
   8 H :    0.162197
   9 H :    0.177393
  10 H :    0.160353
  11 H :    0.204993
  12 H :    0.208792

  Mayer bond orders larger than 0.100000
B(  0-C ,  1-C ) :   0.9171 B(  0-C ,  6-H ) :   0.9683 B(  0-C ,  7-H ) :   0.9735
B(  0-C ,  8-H ) :   0.9823 B(  1-C ,  2-C ) :   0.9335 B(  1-C ,  9-H ) :   0.9556
B(  1-C , 10-H ) :   0.9439 B(  2-C ,  3-N ) :   0.8924 B(  2-C , 11-H ) :   0.9595
B(  2-C , 12-H ) :   0.9144 B(  3-N ,  4-O ) :   1.8441 B(  3-N ,  5-O ) :   1.8588
B(  4-O ,  5-O ) :   0.2765

Dispersion correction           -0.002928928
FINAL SINGLE POINT ENERGY      -323.580491290155

DIPOLE MOMENT
-------------

Method             : SCF
Type of density    : Electron Density
Multiplicity       :   1
Irrep              :   0
Energy             :  -323.5902024686198502 Eh
Relativity type    :
Basis              : AO
                                X                 Y                 Z
Electronic contribution:      8.530381216       0.049438864       0.309420763
Nuclear contribution   :     -9.799576380       0.632867282      -0.201871002
                        -----------------------------------------
Total Dipole Moment    :     -1.269195163       0.682306146       0.107549760
                        -----------------------------------------
Magnitude (a.u.)       :      1.444979235
Magnitude (Debye)      :      3.672845330

Rotational constants in cm-1:             0.232604             0.081098             0.074555
Rotational constants in MHz :          6973.294839          2431.246926          2235.105341

                             ****ORCA TERMINATED NORMALLY****
TOTAL RUN TIME: 0 days 0 hours 0 minutes 22 seconds 827 msec
