                         Program Version 6.0.0  -   RELEASE  -
|  1> ! r2scan-3c def2/J RI DEFGRID2 scfconv6 printgap
|  2> %output
|  3>     printlevel normal
|  4> end
|  5> %cpcm
|  6>     smd true
|  7>     smdsolvent "water"
|  8> end
|  9> * xyz 0 1
| 10> C -2.0244586576 -0.8129753878 -0.4391751143
| 11> C -1.5215031403 0.248179058 0.5336451337
| 12> C -0.2845031522 0.9619953185 0.0048996029
| 13> N 0.8993830892 0.1048984126 -0.0146706613
| 14> O 1.7965001194 0.4188771833 -0.7748392887
| 15> O 0.9527772281 -0.8517774836 0.7265882456
| 16> H -2.9272869774 -1.2766262445 -0.0527964556
| 17> H -2.2513303376 -0.3727762915 -1.4071774087
| 18> H -1.2789729964 -1.5934141997 -0.5769551493
| 19> H -1.286590326 -0.2166947553 1.4918213482
| 20> H -2.2987889623 0.994060956 0.695520336
| 21> H -0.4224557491 1.3358122216 -1.0116849892
| 22> H -0.0287337882 1.8104462971 0.6469475022
| 23> *
| 24>
| 25>                          ****END OF INPUT****

CARTESIAN COORDINATES (ANGSTROEM)
---------------------------------
  C     -2.024459   -0.812975   -0.439175
  C     -1.521503    0.248179    0.533645
  C     -0.284503    0.961995    0.004900
  N      0.899383    0.104898   -0.014671
  O      1.796500    0.418877   -0.774839
  O      0.952777   -0.851777    0.726588
  H     -2.927287   -1.276626   -0.052796
  H     -2.251330   -0.372776   -1.407177
  H     -1.278973   -1.593414   -0.576955
  H     -1.286590   -0.216695    1.491821
  H     -2.298789    0.994061    0.695520
  H     -0.422456    1.335812   -1.011685
  H     -0.028734    1.810446    0.646948

 Total Charge           Charge          ....    0
 Multiplicity           Mult            ....    1
 Number of Electrons    NEL             ....   48
 Basis Dimension        Dim             ....  164

ORBITAL ENERGIES
----------------

  NO   OCC          E(Eh)            E(eV)
   0   2.0000     -18.997091      -516.9371
   1   2.0000     -18.994212      -516.8588
   2   2.0000     -14.398504      -391.8032
   3   2.0000     -10.080287      -274.2986
   4   2.0000     -10.034306      -273.0474
   5   2.0000     -10.013800      -272.4894
   6   2.0000      -1.215908       -33.0865
   7   2.0000      -1.037997       -28.2453
   8   2.0000      -0.804703       -21.8971
   9   2.0000      -0.712162       -19.3789
  10   2.0000      -0.609791       -16.5933
  11   2.0000      -0.556224       -15.1356
  12   2.0000      -0.527902       -14.3650
  13   2.0000      -0.510719       -13.8974
  14   2.0000      -0.494676       -13.4608
  15   2.0000      -0.416062       -11.3216
  16   2.0000      -0.408713       -11.1216
  17   2.0000      -0.377411       -10.2699
  18   2.0000      -0.326672        -8.8892
  19   2.0000      -0.320696        -8.7266
  20   2.0000      -0.312959        -8.5160
  21   2.0000      -0.303044        -8.2463
  22   2.0000      -0.286923        -7.8076
  23   2.0000      -0.269181        -7.3248
  24   0.0000      -0.108983        -2.9656
  25   0.0000       0.088178         2.3994
  26   0.0000       0.107875         2.9354
  27   0.0000       0.130124         3.5409
  28   0.0000       0.134054         3.6478

MULLIKEN ATOMIC CHARGES
-----------------------
   0 C :   -0.529868
   1 C :   -0.177309
   2 C :   -0.321611
   3 N :    0.275423
   4 O :   -0.255121
   5 O :   -0.250197
   6 H :    0.165017
   7 H :    0.158170
   8 H :    0.165873
   9 H :    0.159808
  10 H :    0.172423
  11 H :    0.216689
  12 H :    0.220702
Sum of atomic charges:    0.0000000

LOEWDIN ATOMIC CHARGES
----------------------
   0 C :   -0.420899
   1 C :   -0.271668
   2 C :    0.038692
   3 N :   -0.525450
   4 O :   -0.045498
   5 O :   -0.041786
   6 H :    0.158444
   7 H :    0.157366
   8 H :    0.158639
   9 H :    0.175301
  10 H :    0.170864
  11 H :    0.217816
  12 H :    0.228178

  Mayer bond orders larger than 0.100000
B(  0-C ,  1-C ) :   0.9140 B(  0-C ,  6-H ) :   0.9670 B(  0-C ,  7-H ) :   0.9702
B(  0-C ,  8-H ) :   0.9820 B(  1-C ,  2-C ) :   0.9221 B(  1-C ,  9-H ) :   0.9619
B(  1-C , 10-H ) :   0.9396 B(  2-C ,  3-N ) :   0.9181 B(  2-C , 11-H ) :   0.9424
B(  2-C , 12-H ) :   0.8895 B(  3-N ,  4-O ) :   1.7890 B(  3-N ,  5-O ) :   1.8215
B(  4-O ,  5-O ) :   0.2651

Dispersion correction           -0.002928928
FINAL SINGLE POINT ENERGY      -323.585918485046

DIPOLE MOMENT
-------------

Method             : SCF
Type of density    : Electron Density
Multiplicity       :   1
Irrep              :   0
Energy             :  -323.5956296635112608 Eh
Relativity type    :
Basis              : AO
                                X                 Y                 Z
Electronic contribution:      8.149680581       0.373221710       0.334631013
Nuclear contribution   :     -9.799576380       0.632867282      -0.201871002
                        -----------------------------------------
Total Dipole Moment    :     -1.649895798       1.006088992       0.132760011
                        -----------------------------------------
Magnitude (a.u.)       :      1.937007079
Magnitude (Debye)      :      4.923480720

Rotational constants in cm-1:             0.232604             0.081098             0.074555
Rotational constants in MHz :          6973.294839          2431.246926          2235.105341

                             ****ORCA TERMINATED NORMALLY****
TOTAL RUN TIME: 0 days 0 hours 0 minutes 28 seconds 264 msec
