                         Program Version 6.0.0  -   RELEASE  -
|  1> ! pbe def2-sv(p) def2/J RI DEFGRID1 loosescf d4 GCP(DFT/SV(P)) printgap
|  2> %output
|  3>     printlevel normal
|  4> end
|  5> * xyz 0 1
|  6> C -3.3265638459 0.1323244762 0.8348822227
|  7> C -2.6519183001 -0.6661135871 -0.2751179054
|  8> C -1.1335157992 -0.7540057346 -0.1156543234
|  9> C -0.4509571938 0.6002941807 -0.2960839629
| 10> C 1.0523545014 0.5417734687 -0.2566651639
| 11> O 1.777325355 1.4212341385 -0.6798612603
| 12> O 1.5181904272 -0.5660921431 0.3046014137
| 13> C 2.9367266587 -0.7076154801 0.4074480266
| 14> H -3.0318839626 1.1777200379 0.8019711241
| 15> H -4.4072633027 0.0842780636 0.7270349287
| 16> H -3.0613199163 -0.2723576056 1.8088081438
| 17> H -3.0549462099 -1.6805669589 -0.2740220229
| 18> H -2.8888110574 -0.2171937451 -1.2417633335
| 19> H -0.7379602812 -1.4495802952 -0.8579813223
| 20> H -0.8923642601 -1.1519684743 0.8707675774
| 21> H -0.7520276347 1.2866450654 0.4989618063
| 22> H -0.7357908199 1.0614599669 -1.2438490038
| 23> H 3.101725166 -1.6914081463 0.8353079013
| 24> H 3.3439765072 0.0734671654 1.0506654095
| 25> H 3.3930078237 -0.6258527063 -0.5798909228
| 26> *
| 27>
| 28>                          ****END OF INPUT****

CARTESIAN COORDINATES (ANGSTROEM)
---------------------------------
  C     -3.326564    0.132324    0.834882
  C     -2.651918   -0.666114   -0.275118
  C     -1.133516   -0.754006   -0.115654
  C     -0.450957    0.600294   -0.296084
  C      1.052355    0.541773   -0.256665
  O      1.777325    1.421234   -0.679861
  O      1.518190   -0.566092    0.304601
  C      2.936727   -0.707615    0.407448
  H     -3.031884    1.177720    0.801971
  H     -4.407263    0.084278    0.727035
  H     -3.061320   -0.272358    1.808808
  H     -3.054946   -1.680567   -0.274022
  H     -2.888811   -0.217194   -1.241763
  H     -0.737960   -1.449580   -0.857981
  H     -0.892364   -1.151968    0.870768
  H     -0.752028    1.286645    0.498962
  H     -0.735791    1.061460   -1.243849
  H      3.101725   -1.691408    0.835308
  H      3.343977    0.073467    1.050665
  H      3.393008   -0.625853   -0.579891

 Total Charge           Charge          ....    0
 Multiplicity           Mult            ....    1
 Number of Electrons    NEL             ....   64
 Basis Dimension        Dim             ....  136

ORBITAL ENERGIES
----------------

  NO   OCC          E(Eh)            E(eV)
   0   2.0000     -18.799721      -511.5664
   1   2.0000     -18.728699      -509.6338
   2   2.0000     -10.002040      -272.1693
   3   2.0000      -9.940901      -270.5057
   4   2.0000      -9.896617      -269.3006
   5   2.0000      -9.887318      -269.0476
   6   2.0000      -9.886710      -269.0311
   7   2.0000      -9.876960      -268.7657
   8   2.0000      -1.005312       -27.3559
   9   2.0000      -0.904863       -24.6226
  10   2.0000      -0.732574       -19.9344
  11   2.0000      -0.684313       -18.6211
  12   2.0000      -0.642012       -17.4700
  13   2.0000      -0.588047       -16.0016
  14   2.0000      -0.515147       -14.0179
  15   2.0000      -0.508419       -13.8348
  16   2.0000      -0.451080       -12.2745
  17   2.0000      -0.444090       -12.0843
  18   2.0000      -0.414232       -11.2718
  19   2.0000      -0.410378       -11.1669
  20   2.0000      -0.386805       -10.5255
  21   2.0000      -0.378621       -10.3028
  22   2.0000      -0.359861        -9.7923
  23   2.0000      -0.355721        -9.6797
  24   2.0000      -0.333867        -9.0850
  25   2.0000      -0.320141        -8.7115
  26   2.0000      -0.304562        -8.2876
  27   2.0000      -0.295780        -8.0486
  28   2.0000      -0.289183        -7.8691
  29   2.0000      -0.286429        -7.7941
  30   2.0000      -0.255590        -6.9550
  31   2.0000      -0.212591        -5.7849
  32   0.0000      -0.017044        -0.4638
  33   0.0000       0.033344         0.9073
  34   0.0000       0.057345         1.5604
  35   0.0000       0.066262         1.8031
  36   0.0000       0.069312         1.8861

MULLIKEN ATOMIC CHARGES
-----------------------
   0 C :   -0.298347
   1 C :   -0.155539
   2 C :   -0.166078
   3 C :   -0.195314
   4 C :    0.122006
   5 O :   -0.213614
   6 O :   -0.238026
   7 C :   -0.108003
   8 H :    0.109306
   9 H :    0.105363
  10 H :    0.099172
  11 H :    0.086377
  12 H :    0.082743
  13 H :    0.088212
  14 H :    0.090143
  15 H :    0.122946
  16 H :    0.108797
  17 H :    0.120491
  18 H :    0.118976
  19 H :    0.120388
Sum of atomic charges:   -0.0000000

LOEWDIN ATOMIC CHARGES
----------------------
   0 C :   -0.343821
   1 C :   -0.233774
   2 C :   -0.229158
   3 C :   -0.247674
   4 C :    0.033747
   5 O :   -0.174625
   6 O :   -0.067890
   7 C :   -0.202803
   8 H :    0.116496
   9 H :    0.121108
  10 H :    0.117484
  11 H :    0.117014
  12 H :    0.114204
  13 H :    0.118017
  14 H :    0.118263
  15 H :    0.144118
  16 H :    0.139213
  17 H :    0.120014
  18 H :    0.119678
  19 H :    0.120387

  Mayer bond orders larger than 0.100000
B(  0-C ,  1-C ) :   1.1489 B(  0-C ,  8-H ) :   0.9517 B(  0-C ,  9-H ) :   0.9515
B(  0-C , 10-H ) :   0.9551 B(  1-C ,  2-C ) :   1.1202 B(  1-C , 11-H ) :   0.9274
B(  1-C , 12-H ) :   0.9244 B(  2-C ,  3-C ) :   1.1217 B(  2-C , 13-H ) :   0.9286
B(  2-C , 14-H ) :   0.9140 B(  3-C ,  4-C ) :   1.0360 B(  3-C , 15-H ) :   0.8845
B(  3-C , 16-H ) :   0.9059 B(  4-C ,  5-O ) :   2.0589 B(  4-C ,  6-O ) :   1.2185
B(  6-O ,  7-C ) :   0.9391 B(  7-C , 17-H ) :   0.9587 B(  7-C , 18-H ) :   0.9534
B(  7-C , 19-H ) :   0.9506

Dispersion correction           -0.014943591
FINAL SINGLE POINT ENERGY      -385.450954382275

DIPOLE MOMENT
-------------

Method             : SCF
Type of density    : Electron Density
Multiplicity       :   1
Irrep              :   0
Energy             :  -385.5261254964892714 Eh
Relativity type    :
Basis              : AO
                                X                 Y                 Z
Electronic contribution:      8.902670272       2.510935648      -1.898312549
Nuclear contribution   :     -9.073545619      -3.182112940       2.242292645
                        -----------------------------------------
Total Dipole Moment    :     -0.170875348      -0.671177292       0.343980096
                        -----------------------------------------
Magnitude (a.u.)       :      0.773304369
Magnitude (Debye)      :      1.965583499

Rotational constants in cm-1:             0.155551             0.030178             0.027317
Rotational constants in MHz :          4663.304039           904.705546           818.930962

                             ****ORCA TERMINATED NORMALLY****
TOTAL RUN TIME: 0 days 0 hours 0 minutes 9 seconds 632 msec
