                         Program Version 6.0.0  -   RELEASE  -
|  1> ! r2scan-3c def2/J RI DEFGRID2 scfconv6 printgap
|  2> %output
|  3>     printlevel normal
|  4> end
|  5> * xyz 0 1
|  6> C -2.0805112909 -1.5443437272 -0.0580365135
|  7> C -2.4157478741 -0.0594883953 -0.1283026693
|  8> C -1.3935930989 0.7878410362 0.6379717839
|  9> C -0.042643083 0.7169699731 -0.0264636811
| 10> O 0.1782220884 1.0243457979 -1.1795027534
| 11> O 0.8907965735 0.2807752142 0.8102380029
| 12> C 2.2362180996 0.137155267 0.3254646025
| 13> C 2.4436134471 -1.2262399534 -0.3164880087
| 14> H -2.0383977299 -1.8780452884 0.9759483391
| 15> H -2.8338582402 -2.1277223006 -0.5805924922
| 16> H -1.1152916829 -1.7388720861 -0.5216235357
| 17> H -3.4044059681 0.1139880679 0.2972983618
| 18> H -2.4276153018 0.2664298787 -1.1701839822
| 19> H -1.2950977735 0.4447889209 1.6670191504
| 20> H -1.710418413 1.8318324761 0.6293147852
| 21> H 2.4347081064 0.9364549954 -0.3950905965
| 22> H 2.8622329388 0.2588684539 1.209833488
| 23> H 1.8204557854 -1.3190769749 -1.2034862755
| 24> H 3.4838608704 -1.333876689 -0.6055916249
| 25> H 2.1820452138 -2.0137677303 0.3852114153
| 26> *
| 27>
| 28>                          ****END OF INPUT****

CARTESIAN COORDINATES (ANGSTROEM)
---------------------------------
  C     -2.080511   -1.544344   -0.058037
  C     -2.415748   -0.059488   -0.128303
  C     -1.393593    0.787841    0.637972
  C     -0.042643    0.716970   -0.026464
  O      0.178222    1.024346   -1.179503
  O      0.890797    0.280775    0.810238
  C      2.236218    0.137155    0.325465
  C      2.443613   -1.226240   -0.316488
  H     -2.038398   -1.878045    0.975948
  H     -2.833858   -2.127722   -0.580592
  H     -1.115292   -1.738872   -0.521624
  H     -3.404406    0.113988    0.297298
  H     -2.427615    0.266430   -1.170184
  H     -1.295098    0.444789    1.667019
  H     -1.710418    1.831832    0.629315
  H      2.434708    0.936455   -0.395091
  H      2.862233    0.258868    1.209833
  H      1.820456   -1.319077   -1.203486
  H      3.483861   -1.333877   -0.605592
  H      2.182045   -2.013768    0.385211

 Total Charge           Charge          ....    0
 Multiplicity           Mult            ....    1
 Number of Electrons    NEL             ....   64
 Basis Dimension        Dim             ....  222

ORBITAL ENERGIES
----------------

  NO   OCC          E(Eh)            E(eV)
   0   2.0000     -18.996769      -516.9284
   1   2.0000     -18.927270      -515.0372
   2   2.0000     -10.151167      -276.2273
   3   2.0000     -10.090801      -274.5846
   4   2.0000     -10.039997      -273.2022
   5   2.0000     -10.034457      -273.0515
   6   2.0000     -10.029144      -272.9069
   7   2.0000     -10.020023      -272.6587
   8   2.0000      -1.071074       -29.1454
   9   2.0000      -0.975104       -26.5339
  10   2.0000      -0.773081       -21.0366
  11   2.0000      -0.739586       -20.1252
  12   2.0000      -0.677437       -18.4340
  13   2.0000      -0.625477       -17.0201
  14   2.0000      -0.566142       -15.4055
  15   2.0000      -0.518584       -14.1114
  16   2.0000      -0.473693       -12.8898
  17   2.0000      -0.454186       -12.3590
  18   2.0000      -0.445544       -12.1239
  19   2.0000      -0.418568       -11.3898
  20   2.0000      -0.407267       -11.0823
  21   2.0000      -0.391018       -10.6401
  22   2.0000      -0.376481       -10.2446
  23   2.0000      -0.367900       -10.0111
  24   2.0000      -0.351173        -9.5559
  25   2.0000      -0.344727        -9.3805
  26   2.0000      -0.317628        -8.6431
  27   2.0000      -0.309917        -8.4333
  28   2.0000      -0.309501        -8.4219
  29   2.0000      -0.302913        -8.2427
  30   2.0000      -0.271103        -7.3771
  31   2.0000      -0.235648        -6.4123
  32   0.0000      -0.015327        -0.4171
  33   0.0000       0.074576         2.0293
  34   0.0000       0.088145         2.3985
  35   0.0000       0.110875         3.0171
  36   0.0000       0.117556         3.1989

MULLIKEN ATOMIC CHARGES
-----------------------
   0 C :   -0.492803
   1 C :   -0.218277
   2 C :   -0.304956
   3 C :    0.349237
   4 O :   -0.426741
   5 O :   -0.171649
   6 C :   -0.137963
   7 C :   -0.471896
   8 H :    0.147608
   9 H :    0.148528
  10 H :    0.154237
  11 H :    0.144612
  12 H :    0.161121
  13 H :    0.164329
  14 H :    0.165669
  15 H :    0.168865
  16 H :    0.147802
  17 H :    0.171933
  18 H :    0.147466
  19 H :    0.152879
Sum of atomic charges:    0.0000000

LOEWDIN ATOMIC CHARGES
----------------------
   0 C :   -0.416736
   1 C :   -0.292472
   2 C :   -0.231657
   3 C :    0.354780
   4 O :   -0.437688
   5 O :   -0.595572
   6 C :    0.026958
   7 C :   -0.391762
   8 H :    0.151161
   9 H :    0.152734
  10 H :    0.155104
  11 H :    0.152869
  12 H :    0.166839
  13 H :    0.176840
  14 H :    0.181454
  15 H :    0.188450
  16 H :    0.177663
  17 H :    0.164509
  18 H :    0.159143
  19 H :    0.157383

  Mayer bond orders larger than 0.100000
B(  0-C ,  1-C ) :   0.9053 B(  0-C ,  8-H ) :   0.9816 B(  0-C ,  9-H ) :   0.9689
B(  0-C , 10-H ) :   0.9717 B(  1-C ,  2-C ) :   0.8862 B(  1-C , 11-H ) :   0.9654
B(  1-C , 12-H ) :   0.9690 B(  2-C ,  3-C ) :   0.9394 B(  2-C , 13-H ) :   1.0051
B(  2-C , 14-H ) :   0.9396 B(  3-C ,  4-O ) :   1.8336 B(  3-C ,  5-O ) :   1.0502
B(  5-O ,  6-C ) :   0.8245 B(  6-C ,  7-C ) :   0.9326 B(  6-C , 15-H ) :   0.9687
B(  6-C , 16-H ) :   0.9616 B(  7-C , 17-H ) :   0.9721 B(  7-C , 18-H ) :   0.9649
B(  7-C , 19-H ) :   0.9727

Dispersion correction           -0.005267015
FINAL SINGLE POINT ENERGY      -386.236717482924

DIPOLE MOMENT
-------------

Method             : SCF
Type of density    : Electron Density
Multiplicity       :   1
Irrep              :   0
Energy             :  -386.2431832673622125 Eh
Relativity type    :
Basis              : AO
                                X                 Y                 Z
Electronic contribution:      2.026706211       5.774555129      -0.010904820
Nuclear contribution   :     -1.899680474      -6.134081209       0.640036676
                        -----------------------------------------
Total Dipole Moment    :      0.127025737      -0.359526080       0.629131855
                        -----------------------------------------
Magnitude (a.u.)       :      0.735663939
Magnitude (Debye)      :      1.869909130

Rotational constants in cm-1:             0.110687             0.041011             0.036417
Rotational constants in MHz :          3318.300298          1229.468638          1091.767258

                             ****ORCA TERMINATED NORMALLY****
TOTAL RUN TIME: 0 days 0 hours 0 minutes 33 seconds 894 msec
