                         Program Version 6.0.0  -   RELEASE  -
|  1> ! r2scan-3c def2/J RI DEFGRID2 scfconv6 printgap
|  2> %output
|  3>     printlevel normal
|  4> end
|  5> %cpcm
|  6>     smd true
|  7>     smdsolvent "water"
|  8> end
|  9> * xyz 0 1
| 10> C -2.0805112909 -1.5443437272 -0.0580365135
| 11> C -2.4157478741 -0.0594883953 -0.1283026693
| 12> C -1.3935930989 0.7878410362 0.6379717839
| 13> C -0.042643083 0.7169699731 -0.0264636811
| 14> O 0.1782220884 1.0243457979 -1.1795027534
| 15> O 0.8907965735 0.2807752142 0.8102380029
| 16> C 2.2362180996 0.137155267 0.3254646025
| 17> C 2.4436134471 -1.2262399534 -0.3164880087
| 18> H -2.0383977299 -1.8780452884 0.9759483391
| 19> H -2.8338582402 -2.1277223006 -0.5805924922
| 20> H -1.1152916829 -1.7388720861 -0.5216235357
| 21> H -3.4044059681 0.1139880679 0.2972983618
| 22> H -2.4276153018 0.2664298787 -1.1701839822
| 23> H -1.2950977735 0.4447889209 1.6670191504
| 24> H -1.710418413 1.8318324761 0.6293147852
| 25> H 2.4347081064 0.9364549954 -0.3950905965
| 26> H 2.8622329388 0.2588684539 1.209833488
| 27> H 1.8204557854 -1.3190769749 -1.2034862755
| 28> H 3.4838608704 -1.333876689 -0.6055916249
| 29> H 2.1820452138 -2.0137677303 0.3852114153
| 30> *
| 31>
| 32>                          ****END OF INPUT****

CARTESIAN COORDINATES (ANGSTROEM)
---------------------------------
  C     -2.080511   -1.544344   -0.058037
  C     -2.415748   -0.059488   -0.128303
  C     -1.393593    0.787841    0.637972
  C     -0.042643    0.716970   -0.026464
  O      0.178222    1.024346   -1.179503
  O      0.890797    0.280775    0.810238
  C      2.236218    0.137155    0.325465
  C      2.443613   -1.226240   -0.316488
  H     -2.038398   -1.878045    0.975948
  H     -2.833858   -2.127722   -0.580592
  H     -1.115292   -1.738872   -0.521624
  H     -3.404406    0.113988    0.297298
  H     -2.427615    0.266430   -1.170184
  H     -1.295098    0.444789    1.667019
  H     -1.710418    1.831832    0.629315
  H      2.434708    0.936455   -0.395091
  H      2.862233    0.258868    1.209833
  H      1.820456   -1.319077   -1.203486
  H      3.483861   -1.333877   -0.605592
  H      2.182045   -2.013768    0.385211

 Total Charge           Charge          ....    0
 Multiplicity           Mult            ....    1
 Number of Electrons    NEL             ....   64
 Basis Dimension        Dim             ....  222

ORBITAL ENERGIES
----------------

  NO   OCC          E(Eh)            E(eV)
   0   2.0000     -19.002933      -517.0961
   1   2.0000     -18.943211      -515.4710
   2   2.0000     -10.162078      -276.5242
   3   2.0000     -10.083091      -274.3749
   4   2.0000     -10.034823      -273.0614
   5   2.0000     -10.028337      -272.8849
   6   2.0000     -10.018437      -272.6155
   7   2.0000     -10.011613      -272.4298
   8   2.0000      -1.078793       -29.3555
   9   2.0000      -0.988942       -26.9105
  10   2.0000      -0.769082       -20.9278
  11   2.0000      -0.732984       -19.9455
  12   2.0000      -0.671888       -18.2830
  13   2.0000      -0.620340       -16.8803
  14   2.0000      -0.559973       -15.2376
  15   2.0000      -0.517414       -14.0795
  16   2.0000      -0.474583       -12.9141
  17   2.0000      -0.457281       -12.4432
  18   2.0000      -0.448690       -12.2095
  19   2.0000      -0.421142       -11.4598
  20   2.0000      -0.402075       -10.9410
  21   2.0000      -0.386150       -10.5077
  22   2.0000      -0.369857       -10.0643
  23   2.0000      -0.364419        -9.9163
  24   2.0000      -0.348343        -9.4789
  25   2.0000      -0.341604        -9.2955
  26   2.0000      -0.310849        -8.4586
  27   2.0000      -0.304900        -8.2967
  28   2.0000      -0.303589        -8.2611
  29   2.0000      -0.300647        -8.1810
  30   2.0000      -0.278953        -7.5907
  31   2.0000      -0.251789        -6.8515
  32   0.0000      -0.023547        -0.6407
  33   0.0000       0.076910         2.0928
  34   0.0000       0.095130         2.5886
  35   0.0000       0.120617         3.2822
  36   0.0000       0.125568         3.4169

MULLIKEN ATOMIC CHARGES
-----------------------
   0 C :   -0.530396
   1 C :   -0.224149
   2 C :   -0.321726
   3 C :    0.388474
   4 O :   -0.509330
   5 O :   -0.193187
   6 C :   -0.145295
   7 C :   -0.494447
   8 H :    0.163394
   9 H :    0.161406
  10 H :    0.162293
  11 H :    0.163613
  12 H :    0.155286
  13 H :    0.179532
  14 H :    0.193029
  15 H :    0.172290
  16 H :    0.173742
  17 H :    0.168843
  18 H :    0.170585
  19 H :    0.166040
Sum of atomic charges:    0.0000000

LOEWDIN ATOMIC CHARGES
----------------------
   0 C :   -0.423876
   1 C :   -0.291652
   2 C :   -0.228988
   3 C :    0.364169
   4 O :   -0.496484
   5 O :   -0.598618
   6 C :    0.031615
   7 C :   -0.394197
   8 H :    0.156136
   9 H :    0.156256
  10 H :    0.156180
  11 H :    0.160345
  12 H :    0.163146
  13 H :    0.184300
  14 H :    0.191021
  15 H :    0.189591
  16 H :    0.188978
  17 H :    0.162325
  18 H :    0.167636
  19 H :    0.162117

  Mayer bond orders larger than 0.100000
B(  0-C ,  1-C ) :   0.8974 B(  0-C ,  8-H ) :   0.9782 B(  0-C ,  9-H ) :   0.9656
B(  0-C , 10-H ) :   0.9691 B(  1-C ,  2-C ) :   0.8731 B(  1-C , 11-H ) :   0.9613
B(  1-C , 12-H ) :   0.9728 B(  2-C ,  3-C ) :   0.9421 B(  2-C , 13-H ) :   0.9948
B(  2-C , 14-H ) :   0.9327 B(  3-C ,  4-O ) :   1.7652 B(  3-C ,  5-O ) :   1.0729
B(  5-O ,  6-C ) :   0.8066 B(  6-C ,  7-C ) :   0.9327 B(  6-C , 15-H ) :   0.9648
B(  6-C , 16-H ) :   0.9523 B(  7-C , 17-H ) :   0.9690 B(  7-C , 18-H ) :   0.9600
B(  7-C , 19-H ) :   0.9690

Dispersion correction           -0.005267015
FINAL SINGLE POINT ENERGY      -386.241773566152

DIPOLE MOMENT
-------------

Method             : SCF
Type of density    : Electron Density
Multiplicity       :   1
Irrep              :   0
Energy             :  -386.2482393505897562 Eh
Relativity type    :
Basis              : AO
                                X                 Y                 Z
Electronic contribution:      2.055173853       5.658606519       0.326944701
Nuclear contribution   :     -1.899680474      -6.134081209       0.640036676
                        -----------------------------------------
Total Dipole Moment    :      0.155493379      -0.475474689       0.966981377
                        -----------------------------------------
Magnitude (a.u.)       :      1.088718216
Magnitude (Debye)      :      2.767301785

Rotational constants in cm-1:             0.110687             0.041011             0.036417
Rotational constants in MHz :          3318.300298          1229.468638          1091.767258

                             ****ORCA TERMINATED NORMALLY****
TOTAL RUN TIME: 0 days 0 hours 0 minutes 40 seconds 27 msec
