                         Program Version 6.0.0  -   RELEASE  -
|  1> ! pbe def2-sv(p) def2/J RI DEFGRID1 loosescf d4 GCP(DFT/SV(P)) printgap
|  2> %output
|  3>     printlevel normal
|  4> end
|  5> * xyz 0 1
|  6> C -2.4571316373 -1.2645968727 0.5600504707
|  7> C -2.544256388 0.0890074827 -0.1346501579
|  8> C -1.2846594584 0.3850281888 -0.9509418452
|  9> C -0.0855891287 0.6028882082 -0.0631963612
| 10> O -0.0920437932 1.2297544213 0.976283302
| 11> O 0.998265497 0.0291704848 -0.5677864303
| 12> C 2.2455122925 0.1459417048 0.1388015524
| 13> C 3.034306394 -1.1370889603 -0.0504826789
| 14> H -2.3146102855 -2.0601147314 -0.1674959128
| 15> H -1.6208210863 -1.2781891278 1.2564183433
| 16> H -3.3683723074 -1.4637707772 1.1174926629
| 17> H -2.6682867708 0.8753141761 0.6121909035
| 18> H -3.408128357 0.1051369723 -0.7994604386
| 19> H -1.4261020142 1.3055029326 -1.5215128209
| 20> H -1.0595688222 -0.4247073674 -1.6442980171
| 21> H 2.7806704833 1.004218576 -0.2785095508
| 22> H 2.0297859418 0.3425932563 1.1938803949
| 23> H 3.1916478757 -1.3208123776 -1.1091587022
| 24> H 3.9952707155 -1.0432287814 0.4445382435
| 25> H 2.4941933444 -1.9782788345 0.3748592362
| 26> *
| 27>
| 28>                          ****END OF INPUT****

CARTESIAN COORDINATES (ANGSTROEM)
---------------------------------
  C     -2.457132   -1.264597    0.560050
  C     -2.544256    0.089007   -0.134650
  C     -1.284659    0.385028   -0.950942
  C     -0.085589    0.602888   -0.063196
  O     -0.092044    1.229754    0.976283
  O      0.998265    0.029170   -0.567786
  C      2.245512    0.145942    0.138802
  C      3.034306   -1.137089   -0.050483
  H     -2.314610   -2.060115   -0.167496
  H     -1.620821   -1.278189    1.256418
  H     -3.368372   -1.463771    1.117493
  H     -2.668287    0.875314    0.612191
  H     -3.408128    0.105137   -0.799460
  H     -1.426102    1.305503   -1.521513
  H     -1.059569   -0.424707   -1.644298
  H      2.780670    1.004219   -0.278510
  H      2.029786    0.342593    1.193880
  H      3.191648   -1.320812   -1.109159
  H      3.995271   -1.043229    0.444538
  H      2.494193   -1.978279    0.374859

 Total Charge           Charge          ....    0
 Multiplicity           Mult            ....    1
 Number of Electrons    NEL             ....   64
 Basis Dimension        Dim             ....  136

ORBITAL ENERGIES
----------------

  NO   OCC          E(Eh)            E(eV)
   0   2.0000     -18.797491      -511.5057
   1   2.0000     -18.730846      -509.6922
   2   2.0000     -10.004771      -272.2437
   3   2.0000      -9.945767      -270.6381
   4   2.0000      -9.896184      -269.2889
   5   2.0000      -9.889614      -269.1101
   6   2.0000      -9.888344      -269.0755
   7   2.0000      -9.875062      -268.7141
   8   2.0000      -1.003582       -27.3088
   9   2.0000      -0.908124       -24.7113
  10   2.0000      -0.726503       -19.7692
  11   2.0000      -0.699601       -19.0371
  12   2.0000      -0.636279       -17.3140
  13   2.0000      -0.584832       -15.9141
  14   2.0000      -0.530180       -14.4269
  15   2.0000      -0.500479       -13.6187
  16   2.0000      -0.448438       -12.2026
  17   2.0000      -0.443739       -12.0748
  18   2.0000      -0.418208       -11.3800
  19   2.0000      -0.399951       -10.8832
  20   2.0000      -0.386532       -10.5181
  21   2.0000      -0.369266       -10.0482
  22   2.0000      -0.361077        -9.8254
  23   2.0000      -0.353162        -9.6100
  24   2.0000      -0.341904        -9.3037
  25   2.0000      -0.326480        -8.8840
  26   2.0000      -0.304115        -8.2754
  27   2.0000      -0.296916        -8.0795
  28   2.0000      -0.295284        -8.0351
  29   2.0000      -0.288827        -7.8594
  30   2.0000      -0.255140        -6.9427
  31   2.0000      -0.217826        -5.9273
  32   0.0000      -0.018811        -0.5119
  33   0.0000       0.036653         0.9974
  34   0.0000       0.053198         1.4476
  35   0.0000       0.074990         2.0406
  36   0.0000       0.083511         2.2725

MULLIKEN ATOMIC CHARGES
-----------------------
   0 C :   -0.290595
   1 C :   -0.187778
   2 C :   -0.138989
   3 C :    0.092805
   4 O :   -0.209121
   5 O :   -0.237688
   6 C :   -0.028970
   7 C :   -0.282006
   8 H :    0.096953
   9 H :    0.114826
  10 H :    0.106872
  11 H :    0.107673
  12 H :    0.087934
  13 H :    0.116011
  14 H :    0.094568
  15 H :    0.103253
  16 H :    0.114806
  17 H :    0.114332
  18 H :    0.111308
  19 H :    0.113806
Sum of atomic charges:   -0.0000000

LOEWDIN ATOMIC CHARGES
----------------------
   0 C :   -0.342493
   1 C :   -0.229651
   2 C :   -0.248707
   3 C :    0.035929
   4 O :   -0.171871
   5 O :   -0.068829
   6 C :   -0.112348
   7 C :   -0.351007
   8 H :    0.115946
   9 H :    0.120635
  10 H :    0.121378
  11 H :    0.125391
  12 H :    0.117437
  13 H :    0.143946
  14 H :    0.127426
  15 H :    0.115953
  16 H :    0.119372
  17 H :    0.125682
  18 H :    0.129838
  19 H :    0.125972

  Mayer bond orders larger than 0.100000
B(  0-C ,  1-C ) :   1.1548 B(  0-C ,  8-H ) :   0.9539 B(  0-C ,  9-H ) :   0.9509
B(  0-C , 10-H ) :   0.9527 B(  1-C ,  2-C ) :   1.1138 B(  1-C , 11-H ) :   0.9170
B(  1-C , 12-H ) :   0.9267 B(  2-C ,  3-C ) :   1.0158 B(  2-C , 13-H ) :   0.8907
B(  2-C , 14-H ) :   0.9114 B(  3-C ,  4-O ) :   2.0481 B(  3-C ,  5-O ) :   1.2176
B(  5-O ,  6-C ) :   0.9126 B(  6-C ,  7-C ) :   1.1598 B(  6-C , 15-H ) :   0.9359
B(  6-C , 16-H ) :   0.9135 B(  7-C , 17-H ) :   0.9490 B(  7-C , 18-H ) :   0.9447
B(  7-C , 19-H ) :   0.9523

Dispersion correction           -0.014826560
FINAL SINGLE POINT ENERGY      -385.458200527052

DIPOLE MOMENT
-------------

Method             : SCF
Type of density    : Electron Density
Multiplicity       :   1
Irrep              :   0
Energy             :  -385.5332834832011031 Eh
Relativity type    :
Basis              : AO
                                X                 Y                 Z
Electronic contribution:      1.609867077       5.139308900      -0.005442750
Nuclear contribution   :     -1.275904854      -5.550605279      -0.482779807
                        -----------------------------------------
Total Dipole Moment    :      0.333962223      -0.411296379      -0.488222557
                        -----------------------------------------
Magnitude (a.u.)       :      0.720455927
Magnitude (Debye)      :      1.831253434

Rotational constants in cm-1:             0.128482             0.034305             0.031928
Rotational constants in MHz :          3851.781654          1028.435165           957.189632

                             ****ORCA TERMINATED NORMALLY****
TOTAL RUN TIME: 0 days 0 hours 0 minutes 10 seconds 838 msec
