                         Program Version 6.0.0  -   RELEASE  -
|  1> ! pbe def2-sv(p) def2/J RI DEFGRID1 loosescf d4 GCP(DFT/SV(P)) printgap
|  2> %output
|  3>     printlevel normal
|  4> end
|  5> * xyz 0 1
|  6> C -2.5190021486 -1.2740729658 0.4760655125
|  7> C -2.5499570248 0.1165845971 -0.1465373228
|  8> C -1.2701063877 0.4134643595 -0.9285941631
|  9> C -0.076310298 0.5697173413 -0.0206197589
| 10> O -0.1011580854 1.0646001745 1.0872199829
| 11> O 1.0265827749 0.1124960322 -0.5992602594
| 12> C 2.2796267919 0.1967254995 0.1019474683
| 13> C 3.0271718337 -1.1155280326 -0.0584617823
| 14> H -3.4437207617 -1.4696783083 1.0121864885
| 15> H -2.3953874318 -2.0348754722 -0.291048921
| 16> H -1.6928347533 -1.3533658052 1.1799286312
| 17> H -2.6593847444 0.8651488674 0.6402659087
| 18> H -3.4030511961 0.1972495668 -0.8205663657
| 19> H -1.3777314362 1.3585269229 -1.46596543
| 20> H -1.0528577018 -0.370780004 -1.6533149117
| 21> H 2.8397961628 1.0246714227 -0.341757991
| 22> H 2.0747966449 0.4231394055 1.1530061172
| 23> H 2.4657875097 -1.9285142697 0.3937795283
| 24> H 3.1706743259 -1.3323215721 -1.1129125478
| 25> H 3.9944822645 -1.0379947169 0.4270225268
| 26> *
| 27>
| 28>                          ****END OF INPUT****

CARTESIAN COORDINATES (ANGSTROEM)
---------------------------------
  C     -2.519002   -1.274073    0.476066
  C     -2.549957    0.116585   -0.146537
  C     -1.270106    0.413464   -0.928594
  C     -0.076310    0.569717   -0.020620
  O     -0.101158    1.064600    1.087220
  O      1.026583    0.112496   -0.599260
  C      2.279627    0.196725    0.101947
  C      3.027172   -1.115528   -0.058462
  H     -3.443721   -1.469678    1.012186
  H     -2.395387   -2.034875   -0.291049
  H     -1.692835   -1.353366    1.179929
  H     -2.659385    0.865149    0.640266
  H     -3.403051    0.197250   -0.820566
  H     -1.377731    1.358527   -1.465965
  H     -1.052858   -0.370780   -1.653315
  H      2.839796    1.024671   -0.341758
  H      2.074797    0.423139    1.153006
  H      2.465788   -1.928514    0.393780
  H      3.170674   -1.332322   -1.112913
  H      3.994482   -1.037995    0.427023

 Total Charge           Charge          ....    0
 Multiplicity           Mult            ....    1
 Number of Electrons    NEL             ....   64
 Basis Dimension        Dim             ....  136

ORBITAL ENERGIES
----------------

  NO   OCC          E(Eh)            E(eV)
   0   2.0000     -18.797193      -511.4976
   1   2.0000     -18.731559      -509.7116
   2   2.0000     -10.005480      -272.2630
   3   2.0000      -9.945337      -270.6264
   4   2.0000      -9.896578      -269.2996
   5   2.0000      -9.889522      -269.1076
   6   2.0000      -9.887400      -269.0498
   7   2.0000      -9.874127      -268.6887
   8   2.0000      -1.003314       -27.3016
   9   2.0000      -0.908807       -24.7299
  10   2.0000      -0.726075       -19.7575
  11   2.0000      -0.699184       -19.0258
  12   2.0000      -0.636303       -17.3147
  13   2.0000      -0.585375       -15.9289
  14   2.0000      -0.529782       -14.4161
  15   2.0000      -0.499105       -13.5813
  16   2.0000      -0.449743       -12.2381
  17   2.0000      -0.441589       -12.0163
  18   2.0000      -0.419189       -11.4067
  19   2.0000      -0.399327       -10.8662
  20   2.0000      -0.386614       -10.5203
  21   2.0000      -0.370697       -10.0872
  22   2.0000      -0.360456        -9.8085
  23   2.0000      -0.354034        -9.6337
  24   2.0000      -0.339608        -9.2412
  25   2.0000      -0.328050        -8.9267
  26   2.0000      -0.302487        -8.2311
  27   2.0000      -0.297238        -8.0883
  28   2.0000      -0.294697        -8.0191
  29   2.0000      -0.287973        -7.8361
  30   2.0000      -0.254642        -6.9292
  31   2.0000      -0.218972        -5.9585
  32   0.0000      -0.018633        -0.5070
  33   0.0000       0.036961         1.0057
  34   0.0000       0.053331         1.4512
  35   0.0000       0.074893         2.0379
  36   0.0000       0.085103         2.3158

MULLIKEN ATOMIC CHARGES
-----------------------
   0 C :   -0.291625
   1 C :   -0.180263
   2 C :   -0.147454
   3 C :    0.095629
   4 O :   -0.206748
   5 O :   -0.238898
   6 C :   -0.028540
   7 C :   -0.284790
   8 H :    0.106357
   9 H :    0.096061
  10 H :    0.114671
  11 H :    0.106475
  12 H :    0.086393
  13 H :    0.117021
  14 H :    0.096517
  15 H :    0.103125
  16 H :    0.116567
  17 H :    0.113570
  18 H :    0.114437
  19 H :    0.111494
Sum of atomic charges:   -0.0000000

LOEWDIN ATOMIC CHARGES
----------------------
   0 C :   -0.342588
   1 C :   -0.230587
   2 C :   -0.249487
   3 C :    0.036992
   4 O :   -0.170885
   5 O :   -0.069457
   6 C :   -0.113667
   7 C :   -0.351237
   8 H :    0.121204
   9 H :    0.115389
  10 H :    0.120858
  11 H :    0.125479
  12 H :    0.117221
  13 H :    0.144652
  14 H :    0.128627
  15 H :    0.116083
  16 H :    0.120213
  17 H :    0.126027
  18 H :    0.125376
  19 H :    0.129788

  Mayer bond orders larger than 0.100000
B(  0-C ,  1-C ) :   1.1547 B(  0-C ,  8-H ) :   0.9530 B(  0-C ,  9-H ) :   0.9540
B(  0-C , 10-H ) :   0.9517 B(  1-C ,  2-C ) :   1.1152 B(  1-C , 11-H ) :   0.9162
B(  1-C , 12-H ) :   0.9259 B(  2-C ,  3-C ) :   1.0132 B(  2-C , 13-H ) :   0.8896
B(  2-C , 14-H ) :   0.9111 B(  3-C ,  4-O ) :   2.0492 B(  3-C ,  5-O ) :   1.2153
B(  5-O ,  6-C ) :   0.9128 B(  6-C ,  7-C ) :   1.1640 B(  6-C , 15-H ) :   0.9356
B(  6-C , 16-H ) :   0.9090 B(  7-C , 17-H ) :   0.9519 B(  7-C , 18-H ) :   0.9495
B(  7-C , 19-H ) :   0.9448

Dispersion correction           -0.014810620
FINAL SINGLE POINT ENERGY      -385.458332089524

DIPOLE MOMENT
-------------

Method             : SCF
Type of density    : Electron Density
Multiplicity       :   1
Irrep              :   0
Energy             :  -385.5334769977164910 Eh
Relativity type    :
Basis              : AO
                                X                 Y                 Z
Electronic contribution:      1.728354806       4.968488889       0.283646414
Nuclear contribution   :     -1.374230656      -5.291437873      -0.817766637
                        -----------------------------------------
Total Dipole Moment    :      0.354124150      -0.322948984      -0.534120223
                        -----------------------------------------
Magnitude (a.u.)       :      0.717624117
Magnitude (Debye)      :      1.824055544

Rotational constants in cm-1:             0.132038             0.033704             0.031857
Rotational constants in MHz :          3958.406024          1010.421920           955.062840

                             ****ORCA TERMINATED NORMALLY****
TOTAL RUN TIME: 0 days 0 hours 0 minutes 10 seconds 814 msec
