                         Program Version 6.0.0  -   RELEASE  -
|  1> ! r2scan-3c def2/J RI DEFGRID2 scfconv6 printgap
|  2> %output
|  3>     printlevel normal
|  4> end
|  5> * xyz 0 1
|  6> C -4.6957479965 -0.9889616697 -0.2668682681
|  7> C -4.0009353736 -2.1818335861 -0.1221341842
|  8> C -2.6267768268 -2.1686782333 0.0291596402
|  9> C -1.9223312217 -0.9664428079 0.0373008917
| 10> C -2.6245375572 0.2350775603 -0.1096014094
| 11> C -4.0099788941 0.2109147392 -0.260099747
| 12> C -1.9185965308 1.5223630635 -0.1080751931
| 13> O -2.5224187483 2.5862205331 -0.2312133691
| 14> C -0.4537204824 1.4775378382 0.0444926236
| 15> C 0.2149002871 2.6890799212 0.0174676244
| 16> C 1.6007566937 2.7316966723 0.1453067864
| 17> C 2.3133292145 1.573791025 0.3049730792
| 18> C 1.6730053618 0.3114047335 0.3509959308
| 19> C 0.2516143623 0.2615526137 0.2079216081
| 20> C -0.4564795357 -1.0006583834 0.208215956
| 21> O 0.1062424806 -2.1024049843 0.3383875018
| 22> N 2.3748487271 -0.8131253185 0.5512684859
| 23> C 3.8074167341 -0.9294184794 0.6017431757
| 24> C 4.4405425315 -0.9088219572 -0.8059188616
| 25> O 5.84615263 -0.9032181004 -0.7564242484
| 26> H -5.7678685309 -0.996234343 -0.3844619982
| 27> H -4.5314870313 -3.1210237142 -0.1268284061
| 28> H -2.0685439344 -3.0858910258 0.144661692
| 29> H -4.5242510321 1.1541388541 -0.3707567824
| 30> H -0.3639056779 3.591014322 -0.1089523984
| 31> H 2.1112228316 3.681428404 0.1156950589
| 32> H 3.3850274509 1.6230689192 0.3967952315
| 33> H 1.8288353114 -1.6716203241 0.5059323828
| 34> H 4.0416389546 -1.8768243957 1.0903612652
| 35> H 4.2418645146 -0.1227671156 1.1974426027
| 36> H 4.1578694107 0.0101132304 -1.3252113825
| 37> H 4.0700452439 -1.7607339631 -1.389787798
| 38> H 6.1604952986 -1.735016749 -0.3753285078
| 39> *
| 40>
| 41>                          ****END OF INPUT****

CARTESIAN COORDINATES (ANGSTROEM)
---------------------------------
  C     -4.695748   -0.988962   -0.266868
  C     -4.000935   -2.181834   -0.122134
  C     -2.626777   -2.168678    0.029160
  C     -1.922331   -0.966443    0.037301
  C     -2.624538    0.235078   -0.109601
  C     -4.009979    0.210915   -0.260100
  C     -1.918597    1.522363   -0.108075
  O     -2.522419    2.586221   -0.231213
  C     -0.453720    1.477538    0.044493
  C      0.214900    2.689080    0.017468
  C      1.600757    2.731697    0.145307
  C      2.313329    1.573791    0.304973
  C      1.673005    0.311405    0.350996
  C      0.251614    0.261553    0.207922
  C     -0.456480   -1.000658    0.208216
  O      0.106242   -2.102405    0.338388
  N      2.374849   -0.813125    0.551268
  C      3.807417   -0.929418    0.601743
  C      4.440543   -0.908822   -0.805919
  O      5.846153   -0.903218   -0.756424
  H     -5.767869   -0.996234   -0.384462
  H     -4.531487   -3.121024   -0.126828
  H     -2.068544   -3.085891    0.144662
  H     -4.524251    1.154139   -0.370757
  H     -0.363906    3.591014   -0.108952
  H      2.111223    3.681428    0.115695
  H      3.385027    1.623069    0.396795
  H      1.828835   -1.671620    0.505932
  H      4.041639   -1.876824    1.090361
  H      4.241865   -0.122767    1.197443
  H      4.157869    0.010113   -1.325211
  H      4.070045   -1.760734   -1.389788
  H      6.160495   -1.735017   -0.375329

 Total Charge           Charge          ....    0
 Multiplicity           Mult            ....    1
 Number of Electrons    NEL             ....  140
 Basis Dimension        Dim             ....  465

ORBITAL ENERGIES
----------------

  NO   OCC          E(Eh)            E(eV)
   0   2.0000     -18.966859      -516.1145
   1   2.0000     -18.943422      -515.4767
   2   2.0000     -18.938170      -515.3338
   3   2.0000     -14.192018      -386.1844
   4   2.0000     -10.125623      -275.5322
   5   2.0000     -10.122364      -275.4435
   6   2.0000     -10.105314      -274.9796
   7   2.0000     -10.092573      -274.6329
   8   2.0000     -10.084244      -274.4062
   9   2.0000     -10.059925      -273.7445
  10   2.0000     -10.059589      -273.7353
  11   2.0000     -10.058233      -273.6984
  12   2.0000     -10.057569      -273.6804
  13   2.0000     -10.056150      -273.6418
  14   2.0000     -10.054520      -273.5974
  15   2.0000     -10.053539      -273.5707
  16   2.0000     -10.052046      -273.5301
  17   2.0000     -10.050867      -273.4980
  18   2.0000     -10.050281      -273.4821
  19   2.0000     -10.041644      -273.2470
  20   2.0000      -1.007937       -27.4274
  21   2.0000      -1.004430       -27.3319
  22   2.0000      -1.002435       -27.2777
  23   2.0000      -0.931840       -25.3567
  24   2.0000      -0.851473       -23.1698
  25   2.0000      -0.835206       -22.7271
  26   2.0000      -0.775272       -21.0962
  27   2.0000      -0.749255       -20.3883
  28   2.0000      -0.737787       -20.0762
  29   2.0000      -0.732834       -19.9414
  30   2.0000      -0.699097       -19.0234
  31   2.0000      -0.652660       -17.7598
  32   2.0000      -0.634586       -17.2680
  33   2.0000      -0.616370       -16.7723
  34   2.0000      -0.608220       -16.5505
  35   2.0000      -0.571257       -15.5447
  36   2.0000      -0.553836       -15.0706
  37   2.0000      -0.524085       -14.2611
  38   2.0000      -0.518263       -14.1026
  39   2.0000      -0.500113       -13.6088
  40   2.0000      -0.491183       -13.3658
  41   2.0000      -0.466400       -12.6914
  42   2.0000      -0.461740       -12.5646
  43   2.0000      -0.451120       -12.2756
  44   2.0000      -0.439764       -11.9666
  45   2.0000      -0.436242       -11.8708
  46   2.0000      -0.427069       -11.6212
  47   2.0000      -0.418096       -11.3770
  48   2.0000      -0.407907       -11.0997
  49   2.0000      -0.404267       -11.0007
  50   2.0000      -0.403449       -10.9784
  51   2.0000      -0.394313       -10.7298
  52   2.0000      -0.387152       -10.5349
  53   2.0000      -0.375821       -10.2266
  54   2.0000      -0.370947       -10.0940
  55   2.0000      -0.363994        -9.9048
  56   2.0000      -0.354991        -9.6598
  57   2.0000      -0.347345        -9.4517
  58   2.0000      -0.337156        -9.1745
  59   2.0000      -0.332241        -9.0407
  60   2.0000      -0.323753        -8.8098
  61   2.0000      -0.317622        -8.6429
  62   2.0000      -0.297416        -8.0931
  63   2.0000      -0.261880        -7.1261
  64   2.0000      -0.257942        -7.0189
  65   2.0000      -0.252491        -6.8706
  66   2.0000      -0.250758        -6.8235
  67   2.0000      -0.235226        -6.4008
  68   2.0000      -0.222819        -6.0632
  69   2.0000      -0.197966        -5.3869
  70   0.0000      -0.130123        -3.5408
  71   0.0000      -0.079957        -2.1757
  72   0.0000      -0.050832        -1.3832
  73   0.0000      -0.029582        -0.8050
  74   0.0000       0.022488         0.6119

MULLIKEN ATOMIC CHARGES
-----------------------
   0 C :   -0.131023
   1 C :   -0.126924
   2 C :   -0.227641
   3 C :    0.186910
   4 C :    0.138078
   5 C :   -0.214961
   6 C :    0.036292
   7 O :   -0.353854
   8 C :    0.196629
   9 C :   -0.248824
  10 C :   -0.137578
  11 C :   -0.295667
  12 C :    0.296570
  13 C :   -0.144252
  14 C :    0.015559
  15 O :   -0.438968
  16 N :   -0.036675
  17 C :   -0.328232
  18 C :   -0.133428
  19 O :   -0.404852
  20 H :    0.149128
  21 H :    0.148759
  22 H :    0.182153
  23 H :    0.181944
  24 H :    0.185290
  25 H :    0.148024
  26 H :    0.147511
  27 H :    0.307049
  28 H :    0.150117
  29 H :    0.163505
  30 H :    0.150111
  31 H :    0.138691
  32 H :    0.300560
Sum of atomic charges:    0.0000000

LOEWDIN ATOMIC CHARGES
----------------------
   0 C :   -0.142990
   1 C :   -0.140067
   2 C :   -0.101868
   3 C :   -0.025811
   4 C :   -0.035533
   5 C :   -0.096694
   6 C :    0.269824
   7 O :   -0.478975
   8 C :   -0.023522
   9 C :   -0.122653
  10 C :   -0.125558
  11 C :   -0.139669
  12 C :    0.201137
  13 C :   -0.034532
  14 C :    0.270687
  15 O :   -0.539013
  16 N :   -0.679303
  17 C :   -0.023797
  18 C :    0.029426
  19 O :   -0.605769
  20 H :    0.170710
  21 H :    0.170551
  22 H :    0.192828
  23 H :    0.191929
  24 H :    0.193964
  25 H :    0.172574
  26 H :    0.176875
  27 H :    0.296093
  28 H :    0.183732
  29 H :    0.183343
  30 H :    0.183353
  31 H :    0.160726
  32 H :    0.268004

  Mayer bond orders larger than 0.100000
B(  0-C ,  1-C ) :   1.3219 B(  0-C ,  5-C ) :   1.3566 B(  0-C , 20-H ) :   0.9558
B(  1-C ,  2-C ) :   1.3496 B(  1-C , 21-H ) :   0.9556 B(  2-C ,  3-C ) :   1.3548
B(  2-C , 15-O ) :   0.1029 B(  2-C , 22-H ) :   0.9601 B(  3-C ,  4-C ) :   1.5196
B(  3-C , 14-C ) :   0.9184 B(  3-C , 15-O ) :  -0.2036 B(  4-C ,  5-C ) :   1.3502
B(  4-C ,  6-C ) :   0.8544 B(  4-C ,  7-O ) :  -0.2224 B(  5-C ,  7-O ) :   0.1081
B(  5-C , 23-H ) :   0.9634 B(  6-C ,  7-O ) :   2.0985 B(  6-C ,  8-C ) :   0.8637
B(  7-O ,  8-C ) :  -0.2155 B(  7-O ,  9-C ) :   0.1226 B(  8-C ,  9-C ) :   1.4025
B(  8-C , 13-C ) :   1.2794 B(  9-C , 10-C ) :   1.2475 B(  9-C , 24-H ) :   0.9664
B( 10-C , 11-C ) :   1.3893 B( 10-C , 25-H ) :   0.9669 B( 11-C , 12-C ) :   1.1105
B( 11-C , 26-H ) :   0.9532 B( 12-C , 13-C ) :   1.2402 B( 12-C , 14-C ) :  -0.1083
B( 12-C , 16-N ) :   1.2918 B( 13-C , 14-C ) :   0.9436 B( 13-C , 15-O ) :  -0.1327
B( 14-C , 15-O ) :   1.8910 B( 16-N , 17-C ) :   0.8484 B( 16-N , 27-H ) :   0.8299
B( 17-C , 18-C ) :   0.8796 B( 17-C , 28-H ) :   0.9580 B( 17-C , 29-H ) :   0.9708
B( 18-C , 19-O ) :   0.9883 B( 18-C , 30-H ) :   0.9651 B( 18-C , 31-H ) :   0.9774
B( 19-O , 32-H ) :   0.8934

Dispersion correction           -0.015626979
FINAL SINGLE POINT ENERGY      -897.784936640121

DIPOLE MOMENT
-------------

Method             : SCF
Type of density    : Electron Density
Multiplicity       :   1
Irrep              :   0
Energy             :  -897.7855339775480843 Eh
Relativity type    :
Basis              : AO
                                X                 Y                 Z
Electronic contribution:    -11.352087965       3.090859398       0.833568539
Nuclear contribution   :     12.017028320      -4.054523776      -0.598045936
                        -----------------------------------------
Total Dipole Moment    :      0.664940354      -0.963664378       0.235522603
                        -----------------------------------------
Magnitude (a.u.)       :      1.194263625
Magnitude (Debye)      :      3.035576893

Rotational constants in cm-1:             0.022852             0.006950             0.005473
Rotational constants in MHz :           685.091626           208.364988           164.087206

                             ****ORCA TERMINATED NORMALLY****
TOTAL RUN TIME: 0 days 0 hours 2 minutes 6 seconds 669 msec
