                         Program Version 6.0.0  -   RELEASE  -
|  1> ! r2scan-3c def2/J RI DEFGRID2 scfconv6 printgap
|  2> %output
|  3>     printlevel normal
|  4> end
|  5> %cpcm
|  6>     smd true
|  7>     smdsolvent "water"
|  8> end
|  9> * xyz 0 1
| 10> C -4.6957479965 -0.9889616697 -0.2668682681
| 11> C -4.0009353736 -2.1818335861 -0.1221341842
| 12> C -2.6267768268 -2.1686782333 0.0291596402
| 13> C -1.9223312217 -0.9664428079 0.0373008917
| 14> C -2.6245375572 0.2350775603 -0.1096014094
| 15> C -4.0099788941 0.2109147392 -0.260099747
| 16> C -1.9185965308 1.5223630635 -0.1080751931
| 17> O -2.5224187483 2.5862205331 -0.2312133691
| 18> C -0.4537204824 1.4775378382 0.0444926236
| 19> C 0.2149002871 2.6890799212 0.0174676244
| 20> C 1.6007566937 2.7316966723 0.1453067864
| 21> C 2.3133292145 1.573791025 0.3049730792
| 22> C 1.6730053618 0.3114047335 0.3509959308
| 23> C 0.2516143623 0.2615526137 0.2079216081
| 24> C -0.4564795357 -1.0006583834 0.208215956
| 25> O 0.1062424806 -2.1024049843 0.3383875018
| 26> N 2.3748487271 -0.8131253185 0.5512684859
| 27> C 3.8074167341 -0.9294184794 0.6017431757
| 28> C 4.4405425315 -0.9088219572 -0.8059188616
| 29> O 5.84615263 -0.9032181004 -0.7564242484
| 30> H -5.7678685309 -0.996234343 -0.3844619982
| 31> H -4.5314870313 -3.1210237142 -0.1268284061
| 32> H -2.0685439344 -3.0858910258 0.144661692
| 33> H -4.5242510321 1.1541388541 -0.3707567824
| 34> H -0.3639056779 3.591014322 -0.1089523984
| 35> H 2.1112228316 3.681428404 0.1156950589
| 36> H 3.3850274509 1.6230689192 0.3967952315
| 37> H 1.8288353114 -1.6716203241 0.5059323828
| 38> H 4.0416389546 -1.8768243957 1.0903612652
| 39> H 4.2418645146 -0.1227671156 1.1974426027
| 40> H 4.1578694107 0.0101132304 -1.3252113825
| 41> H 4.0700452439 -1.7607339631 -1.389787798
| 42> H 6.1604952986 -1.735016749 -0.3753285078
| 43> *
| 44>
| 45>                          ****END OF INPUT****

CARTESIAN COORDINATES (ANGSTROEM)
---------------------------------
  C     -4.695748   -0.988962   -0.266868
  C     -4.000935   -2.181834   -0.122134
  C     -2.626777   -2.168678    0.029160
  C     -1.922331   -0.966443    0.037301
  C     -2.624538    0.235078   -0.109601
  C     -4.009979    0.210915   -0.260100
  C     -1.918597    1.522363   -0.108075
  O     -2.522419    2.586221   -0.231213
  C     -0.453720    1.477538    0.044493
  C      0.214900    2.689080    0.017468
  C      1.600757    2.731697    0.145307
  C      2.313329    1.573791    0.304973
  C      1.673005    0.311405    0.350996
  C      0.251614    0.261553    0.207922
  C     -0.456480   -1.000658    0.208216
  O      0.106242   -2.102405    0.338388
  N      2.374849   -0.813125    0.551268
  C      3.807417   -0.929418    0.601743
  C      4.440543   -0.908822   -0.805919
  O      5.846153   -0.903218   -0.756424
  H     -5.767869   -0.996234   -0.384462
  H     -4.531487   -3.121024   -0.126828
  H     -2.068544   -3.085891    0.144662
  H     -4.524251    1.154139   -0.370757
  H     -0.363906    3.591014   -0.108952
  H      2.111223    3.681428    0.115695
  H      3.385027    1.623069    0.396795
  H      1.828835   -1.671620    0.505932
  H      4.041639   -1.876824    1.090361
  H      4.241865   -0.122767    1.197443
  H      4.157869    0.010113   -1.325211
  H      4.070045   -1.760734   -1.389788
  H      6.160495   -1.735017   -0.375329

 Total Charge           Charge          ....    0
 Multiplicity           Mult            ....    1
 Number of Electrons    NEL             ....  140
 Basis Dimension        Dim             ....  465

ORBITAL ENERGIES
----------------

  NO   OCC          E(Eh)            E(eV)
   0   2.0000     -18.956776      -515.8401
   1   2.0000     -18.949008      -515.6287
   2   2.0000     -18.946821      -515.5692
   3   2.0000     -14.186581      -386.0365
   4   2.0000     -10.131818      -275.7008
   5   2.0000     -10.127860      -275.5931
   6   2.0000     -10.101392      -274.8729
   7   2.0000     -10.075548      -274.1696
   8   2.0000     -10.063850      -273.8513
   9   2.0000     -10.060276      -273.7540
  10   2.0000     -10.060146      -273.7505
  11   2.0000     -10.058391      -273.7027
  12   2.0000     -10.056717      -273.6572
  13   2.0000     -10.050318      -273.4830
  14   2.0000     -10.049993      -273.4742
  15   2.0000     -10.049761      -273.4679
  16   2.0000     -10.048359      -273.4298
  17   2.0000     -10.048164      -273.4244
  18   2.0000     -10.046486      -273.3788
  19   2.0000     -10.042227      -273.2629
  20   2.0000      -1.016059       -27.6484
  21   2.0000      -1.011937       -27.5362
  22   2.0000      -0.993213       -27.0267
  23   2.0000      -0.924537       -25.1579
  24   2.0000      -0.851328       -23.1658
  25   2.0000      -0.833035       -22.6680
  26   2.0000      -0.773201       -21.0399
  27   2.0000      -0.741693       -20.1825
  28   2.0000      -0.736903       -20.0522
  29   2.0000      -0.730284       -19.8720
  30   2.0000      -0.690089       -18.7783
  31   2.0000      -0.652233       -17.7482
  32   2.0000      -0.628531       -17.1032
  33   2.0000      -0.610401       -16.6099
  34   2.0000      -0.600880       -16.3508
  35   2.0000      -0.566436       -15.4135
  36   2.0000      -0.551723       -15.0131
  37   2.0000      -0.521060       -14.1788
  38   2.0000      -0.513510       -13.9733
  39   2.0000      -0.492306       -13.3963
  40   2.0000      -0.478078       -13.0092
  41   2.0000      -0.463797       -12.6206
  42   2.0000      -0.459324       -12.4988
  43   2.0000      -0.445612       -12.1257
  44   2.0000      -0.433803       -11.8044
  45   2.0000      -0.429757       -11.6943
  46   2.0000      -0.423873       -11.5342
  47   2.0000      -0.418988       -11.4012
  48   2.0000      -0.410058       -11.1582
  49   2.0000      -0.406259       -11.0549
  50   2.0000      -0.399465       -10.8700
  51   2.0000      -0.392424       -10.6784
  52   2.0000      -0.385331       -10.4854
  53   2.0000      -0.379779       -10.3343
  54   2.0000      -0.365560        -9.9474
  55   2.0000      -0.355350        -9.6696
  56   2.0000      -0.346691        -9.4339
  57   2.0000      -0.344634        -9.3780
  58   2.0000      -0.337652        -9.1880
  59   2.0000      -0.329234        -8.9589
  60   2.0000      -0.322351        -8.7716
  61   2.0000      -0.307356        -8.3636
  62   2.0000      -0.292250        -7.9525
  63   2.0000      -0.264749        -7.2042
  64   2.0000      -0.252331        -6.8663
  65   2.0000      -0.251492        -6.8435
  66   2.0000      -0.249712        -6.7950
  67   2.0000      -0.244357        -6.6493
  68   2.0000      -0.230933        -6.2840
  69   2.0000      -0.194797        -5.3007
  70   0.0000      -0.133859        -3.6425
  71   0.0000      -0.080503        -2.1906
  72   0.0000      -0.048887        -1.3303
  73   0.0000      -0.028230        -0.7682
  74   0.0000       0.024332         0.6621

MULLIKEN ATOMIC CHARGES
-----------------------
   0 C :   -0.169340
   1 C :   -0.158518
   2 C :   -0.242078
   3 C :    0.195583
   4 C :    0.138991
   5 C :   -0.227637
   6 C :    0.077827
   7 O :   -0.440507
   8 C :    0.188973
   9 C :   -0.256086
  10 C :   -0.186107
  11 C :   -0.281997
  12 C :    0.292743
  13 C :   -0.148501
  14 C :    0.033257
  15 O :   -0.501323
  16 N :   -0.065909
  17 C :   -0.323063
  18 C :   -0.139338
  19 O :   -0.487907
  20 H :    0.185338
  21 H :    0.185586
  22 H :    0.197369
  23 H :    0.195835
  24 H :    0.197162
  25 H :    0.184056
  26 H :    0.186414
  27 H :    0.340249
  28 H :    0.182454
  29 H :    0.178674
  30 H :    0.160838
  31 H :    0.151422
  32 H :    0.355538
Sum of atomic charges:    0.0000000

LOEWDIN ATOMIC CHARGES
----------------------
   0 C :   -0.139038
   1 C :   -0.132166
   2 C :   -0.108093
   3 C :   -0.027509
   4 C :   -0.042053
   5 C :   -0.101864
   6 C :    0.276745
   7 O :   -0.548583
   8 C :   -0.031977
   9 C :   -0.126068
  10 C :   -0.124415
  11 C :   -0.121143
  12 C :    0.201152
  13 C :   -0.039237
  14 C :    0.271173
  15 O :   -0.582306
  16 N :   -0.665253
  17 C :   -0.016608
  18 C :    0.031815
  19 O :   -0.637170
  20 H :    0.184310
  21 H :    0.184538
  22 H :    0.196717
  23 H :    0.195025
  24 H :    0.195875
  25 H :    0.186234
  26 H :    0.192678
  27 H :    0.298854
  28 H :    0.197546
  29 H :    0.190398
  30 H :    0.185298
  31 H :    0.167790
  32 H :    0.287336

  Mayer bond orders larger than 0.100000
B(  0-C ,  1-C ) :   1.3098 B(  0-C ,  5-C ) :   1.3533 B(  0-C , 20-H ) :   0.9603
B(  1-C ,  2-C ) :   1.3393 B(  1-C , 21-H ) :   0.9602 B(  2-C ,  3-C ) :   1.2991
B(  2-C , 15-O ) :   0.1002 B(  2-C , 22-H ) :   0.9725 B(  3-C ,  4-C ) :   1.5087
B(  3-C , 14-C ) :   0.9127 B(  3-C , 15-O ) :  -0.2021 B(  4-C ,  5-C ) :   1.2880
B(  4-C ,  6-C ) :   0.8634 B(  4-C ,  7-O ) :  -0.2229 B(  5-C ,  7-O ) :   0.1042
B(  5-C , 23-H ) :   0.9739 B(  6-C ,  7-O ) :   2.0602 B(  6-C ,  8-C ) :   0.8739
B(  7-O ,  8-C ) :  -0.2155 B(  7-O ,  9-C ) :   0.1213 B(  8-C ,  9-C ) :   1.3345
B(  8-C , 13-C ) :   1.2653 B(  9-C , 10-C ) :   1.2312 B(  9-C , 24-H ) :   0.9807
B( 10-C , 11-C ) :   1.3855 B( 10-C , 25-H ) :   0.9759 B( 11-C , 12-C ) :   1.0967
B( 11-C , 26-H ) :   0.9557 B( 12-C , 13-C ) :   1.2064 B( 12-C , 14-C ) :  -0.1016
B( 12-C , 16-N ) :   1.3058 B( 13-C , 14-C ) :   0.9617 B( 13-C , 15-O ) :  -0.1363
B( 14-C , 15-O ) :   1.8694 B( 16-N , 17-C ) :   0.8527 B( 16-N , 27-H ) :   0.8262
B( 17-C , 18-C ) :   0.8715 B( 17-C , 28-H ) :   0.9478 B( 17-C , 29-H ) :   0.9658
B( 18-C , 19-O ) :   0.9832 B( 18-C , 30-H ) :   0.9655 B( 18-C , 31-H ) :   0.9687
B( 19-O , 32-H ) :   0.8647

Dispersion correction           -0.015626979
FINAL SINGLE POINT ENERGY      -897.805707001618

DIPOLE MOMENT
-------------

Method             : SCF
Type of density    : Electron Density
Multiplicity       :   1
Irrep              :   0
Energy             :  -897.8063043390457096 Eh
Relativity type    :
Basis              : AO
                                X                 Y                 Z
Electronic contribution:    -10.827002633       2.666872237       0.969874012
Nuclear contribution   :     12.017028320      -4.054523776      -0.598045936
                        -----------------------------------------
Total Dipole Moment    :      1.190025686      -1.387651540       0.371828076
                        -----------------------------------------
Magnitude (a.u.)       :      1.865474215
Magnitude (Debye)      :      4.741658630

Rotational constants in cm-1:             0.022852             0.006950             0.005473
Rotational constants in MHz :           685.091626           208.364988           164.087206

                             ****ORCA TERMINATED NORMALLY****
TOTAL RUN TIME: 0 days 0 hours 2 minutes 38 seconds 714 msec
