                         Program Version 6.0.0  -   RELEASE  -
|  1> ! pbe def2-sv(p) def2/J RI DEFGRID1 loosescf d4 GCP(DFT/SV(P)) printgap
|  2> %output
|  3>     printlevel normal
|  4> end
|  5> * xyz 0 1
|  6> C -3.4941437381 1.7060082304 -0.933779993
|  7> C -3.152792524 0.2417764789 -0.6715374345
|  8> H -3.5915871254 -0.3908230759 -1.4487886669
|  9> C -1.6663371689 -0.0557587142 -0.5994133546
| 10> C -1.2298201035 -1.3536466428 -0.9399684775
| 11> C 0.0893977346 -1.6946264739 -0.870493643
| 12> C 1.0575269275 -0.7539562291 -0.4544720102
| 13> C 2.4232711263 -1.0677983372 -0.375737738
| 14> C 3.3454971241 -0.1303996639 0.0367607416
| 15> C 2.9138455208 1.1648947692 0.3854928456
| 16> C 1.5869612398 1.488375272 0.3159125248
| 17> C 0.6229137816 0.5505590978 -0.1016736798
| 18> C -0.7489316526 0.8683788803 -0.1750377368
| 19> O 4.6470405317 -0.5414351323 0.077420045
| 20> C 5.6432920446 0.3744771761 0.4915248628
| 21> C -3.6923769669 -0.2490834284 0.6570156992
| 22> O -4.1664384608 -1.3540795886 0.8257611628
| 23> O -3.5465991059 0.620733304 1.6389777959
| 24> H -3.2378484472 2.3245631928 -0.0794566555
| 25> H -2.9505984575 2.0558495275 -1.806855875
| 26> H -4.5605063819 1.8055180766 -1.1205297334
| 27> H -1.9642977009 -2.0825412385 -1.2512792091
| 28> H 0.4123986297 -2.6909225708 -1.1333838998
| 29> H 2.7668886385 -2.0560332577 -0.6400436019
| 30> H 3.6255051426 1.9073698598 0.7083246778
| 31> H 1.2628977852 2.4827587845 0.5844064361
| 32> H -1.0551830055 1.8619996183 0.1107982371
| 33> H 5.6935812502 1.2356371843 -0.1797858968
| 34> H 6.5772750791 -0.1808325723 0.4419713366
| 35> H 5.4714649241 0.7103066448 1.5174323968
| 36> H -3.8525188743 0.2731788144 2.4988567265
| 37> *
| 38>
| 39>                          ****END OF INPUT****

CARTESIAN COORDINATES (ANGSTROEM)
---------------------------------
  C     -3.494144    1.706008   -0.933780
  C     -3.152793    0.241776   -0.671537
  H     -3.591587   -0.390823   -1.448789
  C     -1.666337   -0.055759   -0.599413
  C     -1.229820   -1.353647   -0.939968
  C      0.089398   -1.694626   -0.870494
  C      1.057527   -0.753956   -0.454472
  C      2.423271   -1.067798   -0.375738
  C      3.345497   -0.130400    0.036761
  C      2.913846    1.164895    0.385493
  C      1.586961    1.488375    0.315913
  C      0.622914    0.550559   -0.101674
  C     -0.748932    0.868379   -0.175038
  O      4.647041   -0.541435    0.077420
  C      5.643292    0.374477    0.491525
  C     -3.692377   -0.249083    0.657016
  O     -4.166438   -1.354080    0.825761
  O     -3.546599    0.620733    1.638978
  H     -3.237848    2.324563   -0.079457
  H     -2.950598    2.055850   -1.806856
  H     -4.560506    1.805518   -1.120530
  H     -1.964298   -2.082541   -1.251279
  H      0.412399   -2.690923   -1.133384
  H      2.766889   -2.056033   -0.640044
  H      3.625505    1.907370    0.708325
  H      1.262898    2.482759    0.584406
  H     -1.055183    1.862000    0.110798
  H      5.693581    1.235637   -0.179786
  H      6.577275   -0.180833    0.441971
  H      5.471465    0.710307    1.517432
  H     -3.852519    0.273179    2.498857

 Total Charge           Charge          ....    0
 Multiplicity           Mult            ....    1
 Number of Electrons    NEL             ....  122
 Basis Dimension        Dim             ....  266

ORBITAL ENERGIES
----------------

  NO   OCC          E(Eh)            E(eV)
   0   2.0000     -18.801226      -511.6074
   1   2.0000     -18.790282      -511.3096
   2   2.0000     -18.732425      -509.7352
   3   2.0000     -10.011355      -272.4228
   4   2.0000      -9.953426      -270.8465
   5   2.0000      -9.943575      -270.5784
   6   2.0000      -9.912388      -269.7298
   7   2.0000      -9.903817      -269.4966
   8   2.0000      -9.900136      -269.3964
   9   2.0000      -9.897767      -269.3319
  10   2.0000      -9.897192      -269.3163
  11   2.0000      -9.896798      -269.3056
  12   2.0000      -9.890874      -269.1444
  13   2.0000      -9.889703      -269.1125
  14   2.0000      -9.888974      -269.0927
  15   2.0000      -9.884907      -268.9820
  16   2.0000      -9.883721      -268.9497
  17   2.0000      -1.009834       -27.4790
  18   2.0000      -0.969856       -26.3911
  19   2.0000      -0.907742       -24.7009
  20   2.0000      -0.795301       -21.6412
  21   2.0000      -0.757475       -20.6119
  22   2.0000      -0.719038       -19.5660
  23   2.0000      -0.697688       -18.9851
  24   2.0000      -0.665318       -18.1042
  25   2.0000      -0.657918       -17.9029
  26   2.0000      -0.618638       -16.8340
  27   2.0000      -0.604507       -16.4495
  28   2.0000      -0.575813       -15.6687
  29   2.0000      -0.552286       -15.0285
  30   2.0000      -0.539353       -14.6765
  31   2.0000      -0.523317       -14.2402
  32   2.0000      -0.483767       -13.1640
  33   2.0000      -0.462510       -12.5855
  34   2.0000      -0.459479       -12.5031
  35   2.0000      -0.433883       -11.8066
  36   2.0000      -0.423640       -11.5278
  37   2.0000      -0.420051       -11.4302
  38   2.0000      -0.412898       -11.2355
  39   2.0000      -0.407305       -11.0833
  40   2.0000      -0.397565       -10.8183
  41   2.0000      -0.393389       -10.7047
  42   2.0000      -0.379908       -10.3378
  43   2.0000      -0.372613       -10.1393
  44   2.0000      -0.364190        -9.9101
  45   2.0000      -0.358159        -9.7460
  46   2.0000      -0.354163        -9.6373
  47   2.0000      -0.346819        -9.4374
  48   2.0000      -0.332581        -9.0500
  49   2.0000      -0.328036        -8.9263
  50   2.0000      -0.318762        -8.6740
  51   2.0000      -0.312378        -8.5002
  52   2.0000      -0.299168        -8.1408
  53   2.0000      -0.293879        -7.9969
  54   2.0000      -0.279996        -7.6191
  55   2.0000      -0.272541        -7.4162
  56   2.0000      -0.269035        -7.3208
  57   2.0000      -0.249446        -6.7878
  58   2.0000      -0.216281        -5.8853
  59   2.0000      -0.212046        -5.7701
  60   2.0000      -0.180663        -4.9161
  61   0.0000      -0.067809        -1.8452
  62   0.0000      -0.039023        -1.0619
  63   0.0000      -0.009682        -0.2635
  64   0.0000      -0.001284        -0.0349
  65   0.0000       0.022855         0.6219

MULLIKEN ATOMIC CHARGES
-----------------------
   0 C :   -0.223448
   1 C :   -0.137425
   2 H :    0.085187
   3 C :    0.091325
   4 C :   -0.086501
   5 C :   -0.123275
   6 C :    0.172531
   7 C :   -0.225975
   8 C :    0.299376
   9 C :   -0.172522
  10 C :   -0.137973
  11 C :    0.186503
  12 C :   -0.216720
  13 O :   -0.270023
  14 C :   -0.115592
  15 C :    0.120162
  16 O :   -0.189936
  17 O :   -0.287523
  18 H :    0.127825
  19 H :    0.108363
  20 H :    0.107174
  21 H :    0.048861
  22 H :    0.036712
  23 H :    0.030862
  24 H :    0.038582
  25 H :    0.038294
  26 H :    0.026162
  27 H :    0.111869
  28 H :    0.127206
  29 H :    0.111773
  30 H :    0.318146
Sum of atomic charges:   -0.0000000

LOEWDIN ATOMIC CHARGES
----------------------
   0 C :   -0.327232
   1 C :   -0.150014
   2 H :    0.137716
   3 C :   -0.041190
   4 C :   -0.113801
   5 C :   -0.111776
   6 C :   -0.020286
   7 C :   -0.138685
   8 C :    0.029590
   9 C :   -0.165225
  10 C :   -0.104010
  11 C :   -0.035010
  12 C :   -0.107708
  13 O :   -0.092963
  14 C :   -0.202647
  15 C :    0.035284
  16 O :   -0.173705
  17 O :   -0.196553
  18 H :    0.124694
  19 H :    0.125740
  20 H :    0.125282
  21 H :    0.127707
  22 H :    0.124892
  23 H :    0.130222
  24 H :    0.127308
  25 H :    0.124388
  26 H :    0.123874
  27 H :    0.109740
  28 H :    0.123514
  29 H :    0.109674
  30 H :    0.301181

  Mayer bond orders larger than 0.100000
B(  0-C ,  1-C ) :   1.1073 B(  0-C , 18-H ) :   0.9240 B(  0-C , 19-H ) :   0.9447
B(  0-C , 20-H ) :   0.9475 B(  1-C ,  2-H ) :   0.8801 B(  1-C ,  3-C ) :   1.0072
B(  1-C , 15-C ) :   0.9299 B(  3-C ,  4-C ) :   1.2581 B(  3-C , 12-C ) :   1.4488
B(  4-C ,  5-C ) :   1.4559 B(  4-C , 21-H ) :   0.9591 B(  5-C ,  6-C ) :   1.2151
B(  5-C , 22-H ) :   0.9673 B(  6-C ,  7-C ) :   1.2290 B(  6-C , 11-C ) :   1.2408
B(  7-C ,  8-C ) :   1.3824 B(  7-C , 10-C ) :   0.1001 B(  7-C , 23-H ) :   0.9727
B(  8-C ,  9-C ) :   1.1959 B(  8-C , 13-O ) :   1.1350 B(  9-C , 10-C ) :   1.4238
B(  9-C , 24-H ) :   0.9597 B( 10-C , 11-C ) :   1.2337 B( 10-C , 25-H ) :   0.9634
B( 11-C , 12-C ) :   1.2106 B( 12-C , 26-H ) :   0.9579 B( 13-O , 14-C ) :   0.9879
B( 14-C , 27-H ) :   0.9421 B( 14-C , 28-H ) :   0.9589 B( 14-C , 29-H ) :   0.9420
B( 15-C , 16-O ) :   2.1074 B( 15-C , 17-O ) :   1.2779 B( 17-O , 30-H ) :   0.8182

Dispersion correction           -0.039034418
FINAL SINGLE POINT ENERGY      -765.990616634938

DIPOLE MOMENT
-------------

Method             : SCF
Type of density    : Electron Density
Multiplicity       :   1
Irrep              :   0
Energy             :  -766.0847706910592478 Eh
Relativity type    :
Basis              : AO
                                X                 Y                 Z
Electronic contribution:     -3.532472324      -5.761922200       2.021918181
Nuclear contribution   :      4.267798847       6.788511437      -1.649489053
                        -----------------------------------------
Total Dipole Moment    :      0.735326523       1.026589237       0.372429128
                        -----------------------------------------
Magnitude (a.u.)       :      1.316546244
Magnitude (Debye)      :      3.346394610

Rotational constants in cm-1:             0.043806             0.007102             0.006696
Rotational constants in MHz :          1313.272093           212.904477           200.755475

                             ****ORCA TERMINATED NORMALLY****
TOTAL RUN TIME: 0 days 0 hours 0 minutes 27 seconds 630 msec
