                         Program Version 6.0.0  -   RELEASE  -
|  1> ! r2scan-3c def2/J RI DEFGRID2 scfconv6 printgap
|  2> %output
|  3>     printlevel normal
|  4> end
|  5> * xyz 0 1
|  6> C -2.1084161038 -1.5372387286 0.0201734971
|  7> C -2.425881295 -0.0496636679 0.1123063953
|  8> C -1.3851604578 0.7968488328 -0.628592849
|  9> C -0.04183308 0.702925339 0.0485590871
| 10> O 0.16377232 0.9572360313 1.2171723242
| 11> O 0.9046634274 0.3147401723 -0.7972925573
| 12> C 2.2465459702 0.162285221 -0.305346092
| 13> C 2.4630993728 -1.2289079101 0.2704449513
| 14> H -2.8734003838 -2.1198424158 0.5263992611
| 15> H -2.0611621399 -1.8544010797 -1.0187966996
| 16> H -1.1498033273 -1.7509902456 0.489053442
| 17> H -2.4441339446 0.2583810379 1.1594881139
| 18> H -3.4078969263 0.1434805433 -0.3201470511
| 19> H -1.6897345176 1.8444849632 -0.6078963745
| 20> H -1.2783460719 0.4701621174 -1.6621697757
| 21> H 2.8804013001 0.3347286798 -1.1755898637
| 22> H 2.4280846978 0.9270252184 0.4560327406
| 23> H 1.8317059569 -1.3727617832 1.1446896549
| 24> H 2.2181684432 -1.9834478086 -0.4722779303
| 25> H 3.5014540784 -1.3390792188 0.5653922632
| 26> *
| 27>
| 28>                          ****END OF INPUT****

CARTESIAN COORDINATES (ANGSTROEM)
---------------------------------
  C     -2.108416   -1.537239    0.020173
  C     -2.425881   -0.049664    0.112306
  C     -1.385160    0.796849   -0.628593
  C     -0.041833    0.702925    0.048559
  O      0.163772    0.957236    1.217172
  O      0.904663    0.314740   -0.797293
  C      2.246546    0.162285   -0.305346
  C      2.463099   -1.228908    0.270445
  H     -2.873400   -2.119842    0.526399
  H     -2.061162   -1.854401   -1.018797
  H     -1.149803   -1.750990    0.489053
  H     -2.444134    0.258381    1.159488
  H     -3.407897    0.143481   -0.320147
  H     -1.689735    1.844485   -0.607896
  H     -1.278346    0.470162   -1.662170
  H      2.880401    0.334729   -1.175590
  H      2.428085    0.927025    0.456033
  H      1.831706   -1.372762    1.144690
  H      2.218168   -1.983448   -0.472278
  H      3.501454   -1.339079    0.565392

 Total Charge           Charge          ....    0
 Multiplicity           Mult            ....    1
 Number of Electrons    NEL             ....   64
 Basis Dimension        Dim             ....  222

ORBITAL ENERGIES
----------------

  NO   OCC          E(Eh)            E(eV)
   0   2.0000     -18.996739      -516.9275
   1   2.0000     -18.927368      -515.0399
   2   2.0000     -10.151248      -276.2295
   3   2.0000     -10.090763      -274.5836
   4   2.0000     -10.040052      -273.2037
   5   2.0000     -10.034062      -273.0407
   6   2.0000     -10.029120      -272.9062
   7   2.0000     -10.019796      -272.6525
   8   2.0000      -1.071040       -29.1445
   9   2.0000      -0.975189       -26.5362
  10   2.0000      -0.772900       -21.0317
  11   2.0000      -0.739591       -20.1253
  12   2.0000      -0.677431       -18.4338
  13   2.0000      -0.625326       -17.0160
  14   2.0000      -0.565998       -15.4016
  15   2.0000      -0.518488       -14.1088
  16   2.0000      -0.473654       -12.8888
  17   2.0000      -0.454074       -12.3560
  18   2.0000      -0.445660       -12.1270
  19   2.0000      -0.418593       -11.3905
  20   2.0000      -0.407470       -11.0878
  21   2.0000      -0.390839       -10.6353
  22   2.0000      -0.376115       -10.2346
  23   2.0000      -0.368121       -10.0171
  24   2.0000      -0.351039        -9.5523
  25   2.0000      -0.344497        -9.3742
  26   2.0000      -0.317478        -8.6390
  27   2.0000      -0.309746        -8.4286
  28   2.0000      -0.309291        -8.4162
  29   2.0000      -0.302911        -8.2426
  30   2.0000      -0.271163        -7.3787
  31   2.0000      -0.235819        -6.4170
  32   0.0000      -0.015291        -0.4161
  33   0.0000       0.074524         2.0279
  34   0.0000       0.088331         2.4036
  35   0.0000       0.110769         3.0142
  36   0.0000       0.117850         3.2069

MULLIKEN ATOMIC CHARGES
-----------------------
   0 C :   -0.493207
   1 C :   -0.216545
   2 C :   -0.304807
   3 C :    0.348869
   4 O :   -0.427209
   5 O :   -0.172048
   6 C :   -0.138466
   7 C :   -0.470709
   8 H :    0.148504
   9 H :    0.147208
  10 H :    0.154299
  11 H :    0.160991
  12 H :    0.144229
  13 H :    0.166003
  14 H :    0.164659
  15 H :    0.147755
  16 H :    0.168871
  17 H :    0.171417
  18 H :    0.152763
  19 H :    0.147424
Sum of atomic charges:   -0.0000000

LOEWDIN ATOMIC CHARGES
----------------------
   0 C :   -0.416752
   1 C :   -0.293016
   2 C :   -0.231727
   3 C :    0.355119
   4 O :   -0.438100
   5 O :   -0.595540
   6 C :    0.026928
   7 C :   -0.391518
   8 H :    0.152785
   9 H :    0.150939
  10 H :    0.155183
  11 H :    0.167148
  12 H :    0.152818
  13 H :    0.181707
  14 H :    0.176996
  15 H :    0.177632
  16 H :    0.188465
  17 H :    0.164416
  18 H :    0.157385
  19 H :    0.159133

  Mayer bond orders larger than 0.100000
B(  0-C ,  1-C ) :   0.9060 B(  0-C ,  8-H ) :   0.9688 B(  0-C ,  9-H ) :   0.9818
B(  0-C , 10-H ) :   0.9719 B(  1-C ,  2-C ) :   0.8871 B(  1-C , 11-H ) :   0.9680
B(  1-C , 12-H ) :   0.9654 B(  2-C ,  3-C ) :   0.9402 B(  2-C , 13-H ) :   0.9379
B(  2-C , 14-H ) :   1.0050 B(  3-C ,  4-O ) :   1.8337 B(  3-C ,  5-O ) :   1.0507
B(  5-O ,  6-C ) :   0.8242 B(  6-C ,  7-C ) :   0.9334 B(  6-C , 15-H ) :   0.9616
B(  6-C , 16-H ) :   0.9685 B(  7-C , 17-H ) :   0.9721 B(  7-C , 18-H ) :   0.9728
B(  7-C , 19-H ) :   0.9651

Dispersion correction           -0.005253342
FINAL SINGLE POINT ENERGY      -386.236757211727

DIPOLE MOMENT
-------------

Method             : SCF
Type of density    : Electron Density
Multiplicity       :   1
Irrep              :   0
Energy             :  -386.2432386231469650 Eh
Relativity type    :
Basis              : AO
                                X                 Y                 Z
Electronic contribution:      2.040695134       5.704352617       0.211041076
Nuclear contribution   :     -1.902391638      -6.025052714      -0.852967861
                        -----------------------------------------
Total Dipole Moment    :      0.138303495      -0.320700097      -0.641926785
                        -----------------------------------------
Magnitude (a.u.)       :      0.730784788
Magnitude (Debye)      :      1.857507312

Rotational constants in cm-1:             0.111932             0.040543             0.036213
Rotational constants in MHz :          3355.630453          1215.461898          1085.623673

                             ****ORCA TERMINATED NORMALLY****
TOTAL RUN TIME: 0 days 0 hours 0 minutes 34 seconds 14 msec
