                         Program Version 6.0.0  -   RELEASE  -
|  1> ! r2scan-3c def2/J RI DEFGRID2 scfconv6 printgap
|  2> %output
|  3>     printlevel normal
|  4> end
|  5> %cpcm
|  6>     smd true
|  7>     smdsolvent "water"
|  8> end
|  9> * xyz 0 1
| 10> C -2.1084161038 -1.5372387286 0.0201734971
| 11> C -2.425881295 -0.0496636679 0.1123063953
| 12> C -1.3851604578 0.7968488328 -0.628592849
| 13> C -0.04183308 0.702925339 0.0485590871
| 14> O 0.16377232 0.9572360313 1.2171723242
| 15> O 0.9046634274 0.3147401723 -0.7972925573
| 16> C 2.2465459702 0.162285221 -0.305346092
| 17> C 2.4630993728 -1.2289079101 0.2704449513
| 18> H -2.8734003838 -2.1198424158 0.5263992611
| 19> H -2.0611621399 -1.8544010797 -1.0187966996
| 20> H -1.1498033273 -1.7509902456 0.489053442
| 21> H -2.4441339446 0.2583810379 1.1594881139
| 22> H -3.4078969263 0.1434805433 -0.3201470511
| 23> H -1.6897345176 1.8444849632 -0.6078963745
| 24> H -1.2783460719 0.4701621174 -1.6621697757
| 25> H 2.8804013001 0.3347286798 -1.1755898637
| 26> H 2.4280846978 0.9270252184 0.4560327406
| 27> H 1.8317059569 -1.3727617832 1.1446896549
| 28> H 2.2181684432 -1.9834478086 -0.4722779303
| 29> H 3.5014540784 -1.3390792188 0.5653922632
| 30> *
| 31>
| 32>                          ****END OF INPUT****

CARTESIAN COORDINATES (ANGSTROEM)
---------------------------------
  C     -2.108416   -1.537239    0.020173
  C     -2.425881   -0.049664    0.112306
  C     -1.385160    0.796849   -0.628593
  C     -0.041833    0.702925    0.048559
  O      0.163772    0.957236    1.217172
  O      0.904663    0.314740   -0.797293
  C      2.246546    0.162285   -0.305346
  C      2.463099   -1.228908    0.270445
  H     -2.873400   -2.119842    0.526399
  H     -2.061162   -1.854401   -1.018797
  H     -1.149803   -1.750990    0.489053
  H     -2.444134    0.258381    1.159488
  H     -3.407897    0.143481   -0.320147
  H     -1.689735    1.844485   -0.607896
  H     -1.278346    0.470162   -1.662170
  H      2.880401    0.334729   -1.175590
  H      2.428085    0.927025    0.456033
  H      1.831706   -1.372762    1.144690
  H      2.218168   -1.983448   -0.472278
  H      3.501454   -1.339079    0.565392

 Total Charge           Charge          ....    0
 Multiplicity           Mult            ....    1
 Number of Electrons    NEL             ....   64
 Basis Dimension        Dim             ....  222

ORBITAL ENERGIES
----------------

  NO   OCC          E(Eh)            E(eV)
   0   2.0000     -19.002891      -517.0949
   1   2.0000     -18.943284      -515.4730
   2   2.0000     -10.162145      -276.5260
   3   2.0000     -10.083078      -274.3745
   4   2.0000     -10.034863      -273.0625
   5   2.0000     -10.028084      -272.8781
   6   2.0000     -10.018439      -272.6156
   7   2.0000     -10.011561      -272.4284
   8   2.0000      -1.078761       -29.3546
   9   2.0000      -0.989000       -26.9120
  10   2.0000      -0.768964       -20.9246
  11   2.0000      -0.733041       -19.9471
  12   2.0000      -0.671948       -18.2846
  13   2.0000      -0.620222       -16.8771
  14   2.0000      -0.559917       -15.2361
  15   2.0000      -0.517361       -14.0781
  16   2.0000      -0.474595       -12.9144
  17   2.0000      -0.457241       -12.4422
  18   2.0000      -0.448780       -12.2119
  19   2.0000      -0.421247       -11.4627
  20   2.0000      -0.402264       -10.9462
  21   2.0000      -0.386052       -10.5050
  22   2.0000      -0.369516       -10.0551
  23   2.0000      -0.364686        -9.9236
  24   2.0000      -0.348227        -9.4757
  25   2.0000      -0.341455        -9.2915
  26   2.0000      -0.310813        -8.4577
  27   2.0000      -0.304914        -8.2971
  28   2.0000      -0.303429        -8.2567
  29   2.0000      -0.300643        -8.1809
  30   2.0000      -0.278979        -7.5914
  31   2.0000      -0.251960        -6.8562
  32   0.0000      -0.023491        -0.6392
  33   0.0000       0.076788         2.0895
  34   0.0000       0.095237         2.5915
  35   0.0000       0.120484         3.2785
  36   0.0000       0.125907         3.4261

MULLIKEN ATOMIC CHARGES
-----------------------
   0 C :   -0.529683
   1 C :   -0.223808
   2 C :   -0.320920
   3 C :    0.387992
   4 O :   -0.509849
   5 O :   -0.193492
   6 C :   -0.145492
   7 C :   -0.493699
   8 H :    0.161328
   9 H :    0.163036
  10 H :    0.161817
  11 H :    0.154802
  12 H :    0.163271
  13 H :    0.194002
  14 H :    0.179786
  15 H :    0.173661
  16 H :    0.172212
  17 H :    0.168464
  18 H :    0.165991
  19 H :    0.170583
Sum of atomic charges:   -0.0000000

LOEWDIN ATOMIC CHARGES
----------------------
   0 C :   -0.423826
   1 C :   -0.292312
   2 C :   -0.229009
   3 C :    0.364567
   4 O :   -0.496864
   5 O :   -0.598605
   6 C :    0.031599
   7 C :   -0.394018
   8 H :    0.156234
   9 H :    0.156037
  10 H :    0.156093
  11 H :    0.163267
  12 H :    0.160310
  13 H :    0.191545
  14 H :    0.184446
  15 H :    0.188942
  16 H :    0.189580
  17 H :    0.162243
  18 H :    0.162120
  19 H :    0.167654

  Mayer bond orders larger than 0.100000
B(  0-C ,  1-C ) :   0.8990 B(  0-C ,  8-H ) :   0.9657 B(  0-C ,  9-H ) :   0.9782
B(  0-C , 10-H ) :   0.9692 B(  1-C ,  2-C ) :   0.8737 B(  1-C , 11-H ) :   0.9721
B(  1-C , 12-H ) :   0.9612 B(  2-C ,  3-C ) :   0.9431 B(  2-C , 13-H ) :   0.9308
B(  2-C , 14-H ) :   0.9947 B(  3-C ,  4-O ) :   1.7655 B(  3-C ,  5-O ) :   1.0734
B(  5-O ,  6-C ) :   0.8063 B(  6-C ,  7-C ) :   0.9333 B(  6-C , 15-H ) :   0.9523
B(  6-C , 16-H ) :   0.9646 B(  7-C , 17-H ) :   0.9689 B(  7-C , 18-H ) :   0.9691
B(  7-C , 19-H ) :   0.9601

Dispersion correction           -0.005253342
FINAL SINGLE POINT ENERGY      -386.241762869504

DIPOLE MOMENT
-------------

Method             : SCF
Type of density    : Electron Density
Multiplicity       :   1
Irrep              :   0
Energy             :  -386.2482442809244958 Eh
Relativity type    :
Basis              : AO
                                X                 Y                 Z
Electronic contribution:      2.073799829       5.606800330      -0.133904567
Nuclear contribution   :     -1.902391638      -6.025052714      -0.852967861
                        -----------------------------------------
Total Dipole Moment    :      0.171408191      -0.418252385      -0.986872428
                        -----------------------------------------
Magnitude (a.u.)       :      1.085464423
Magnitude (Debye)      :      2.759031299

Rotational constants in cm-1:             0.111932             0.040543             0.036213
Rotational constants in MHz :          3355.630453          1215.461898          1085.623673

                             ****ORCA TERMINATED NORMALLY****
TOTAL RUN TIME: 0 days 0 hours 0 minutes 40 seconds 415 msec
