                         Program Version 6.0.0  -   RELEASE  -
|  1> ! r2scan-3c def2/J RI DEFGRID2 scfconv6 printgap
|  2> %output
|  3>     printlevel normal
|  4> end
|  5> * xyz 0 1
|  6> C -2.7581007074 0.1347979187 0.0034653742
|  7> C -1.362418603 -0.4118769041 0.2802615522
|  8> C -0.3014651499 0.5197722197 -0.2856638139
|  9> N 1.0555339107 0.0382738912 -0.0540154908
| 10> O 1.9676363301 0.7223774025 -0.4811379595
| 11> O 1.2194574538 -1.0036788301 0.5431796982
| 12> H -2.9280681232 0.2297991799 -1.0655997735
| 13> H -3.5080318321 -0.5363011322 0.4107896629
| 14> H -2.8863295096 1.1112181009 0.4627971592
| 15> H -1.2542247746 -1.4004651982 -0.1683762379
| 16> H -1.2124069827 -0.523351842 1.3551430194
| 17> H -0.412399543 0.6441052798 -1.3666221653
| 18> H -0.3636296687 1.5163664145 0.160756216
| 19> *
| 20>
| 21>                          ****END OF INPUT****

CARTESIAN COORDINATES (ANGSTROEM)
---------------------------------
  C     -2.758101    0.134798    0.003465
  C     -1.362419   -0.411877    0.280262
  C     -0.301465    0.519772   -0.285664
  N      1.055534    0.038274   -0.054015
  O      1.967636    0.722377   -0.481138
  O      1.219457   -1.003679    0.543180
  H     -2.928068    0.229799   -1.065600
  H     -3.508032   -0.536301    0.410790
  H     -2.886330    1.111218    0.462797
  H     -1.254225   -1.400465   -0.168376
  H     -1.212407   -0.523352    1.355143
  H     -0.412400    0.644105   -1.366622
  H     -0.363630    1.516366    0.160756

 Total Charge           Charge          ....    0
 Multiplicity           Mult            ....    1
 Number of Electrons    NEL             ....   48
 Basis Dimension        Dim             ....  164

ORBITAL ENERGIES
----------------

  NO   OCC          E(Eh)            E(eV)
   0   2.0000     -18.986466      -516.6480
   1   2.0000     -18.981280      -516.5069
   2   2.0000     -14.391202      -391.6045
   3   2.0000     -10.098683      -274.7991
   4   2.0000     -10.053113      -273.5591
   5   2.0000     -10.039872      -273.1988
   6   2.0000      -1.205942       -32.8154
   7   2.0000      -1.026767       -27.9398
   8   2.0000      -0.816594       -22.2206
   9   2.0000      -0.732142       -19.9226
  10   2.0000      -0.614044       -16.7090
  11   2.0000      -0.565882       -15.3984
  12   2.0000      -0.529084       -14.3971
  13   2.0000      -0.513789       -13.9809
  14   2.0000      -0.483360       -13.1529
  15   2.0000      -0.448068       -12.1926
  16   2.0000      -0.411122       -11.1872
  17   2.0000      -0.382616       -10.4115
  18   2.0000      -0.365952        -9.9581
  19   2.0000      -0.341387        -9.2896
  20   2.0000      -0.329351        -8.9621
  21   2.0000      -0.290756        -7.9119
  22   2.0000      -0.276912        -7.5352
  23   2.0000      -0.255820        -6.9612
  24   0.0000      -0.100770        -2.7421
  25   0.0000       0.066714         1.8154
  26   0.0000       0.077488         2.1086
  27   0.0000       0.121121         3.2959
  28   0.0000       0.127223         3.4619

MULLIKEN ATOMIC CHARGES
-----------------------
   0 C :   -0.459233
   1 C :   -0.174593
   2 C :   -0.372243
   3 N :    0.238396
   4 O :   -0.191019
   5 O :   -0.167277
   6 H :    0.143974
   7 H :    0.157536
   8 H :    0.143756
   9 H :    0.156523
  10 H :    0.156525
  11 H :    0.183819
  12 H :    0.183837
Sum of atomic charges:   -0.0000000

LOEWDIN ATOMIC CHARGES
----------------------
   0 C :   -0.415269
   1 C :   -0.273390
   2 C :    0.024482
   3 N :   -0.530164
   4 O :   -0.009282
   5 O :   -0.007953
   6 H :    0.152181
   7 H :    0.157627
   8 H :    0.152183
   9 H :    0.168183
  10 H :    0.168049
  11 H :    0.206640
  12 H :    0.206713

  Mayer bond orders larger than 0.100000
B(  0-C ,  1-C ) :   0.8872 B(  0-C ,  6-H ) :   0.9803 B(  0-C ,  7-H ) :   0.9705
B(  0-C ,  8-H ) :   0.9800 B(  1-C ,  2-C ) :   0.9167 B(  1-C ,  9-H ) :   0.9571
B(  1-C , 10-H ) :   0.9564 B(  2-C ,  3-N ) :   0.9077 B(  2-C , 11-H ) :   0.9386
B(  2-C , 12-H ) :   0.9377 B(  3-N ,  4-O ) :   1.8513 B(  3-N ,  5-O ) :   1.8603
B(  4-O ,  5-O ) :   0.2859

Dispersion correction           -0.002798118
FINAL SINGLE POINT ENERGY      -323.579923305707

DIPOLE MOMENT
-------------

Method             : SCF
Type of density    : Electron Density
Multiplicity       :   1
Irrep              :   0
Energy             :  -323.5896666347465498 Eh
Relativity type    :
Basis              : AO
                                X                 Y                 Z
Electronic contribution:     10.281073194      -0.644601286       0.056595919
Nuclear contribution   :    -11.735110043       0.973021433      -0.197436288
                        -----------------------------------------
Total Dipole Moment    :     -1.454036849       0.328420148      -0.140840368
                        -----------------------------------------
Magnitude (a.u.)       :      1.497303897
Magnitude (Debye)      :      3.805844052

Rotational constants in cm-1:             0.325543             0.066346             0.056857
Rotational constants in MHz :          9759.540804          1988.988699          1704.522911

                             ****ORCA TERMINATED NORMALLY****
TOTAL RUN TIME: 0 days 0 hours 0 minutes 20 seconds 309 msec
