                         Program Version 6.0.0  -   RELEASE  -
|  1> ! r2scan-3c def2/J RI DEFGRID2 scfconv6 printgap
|  2> %output
|  3>     printlevel normal
|  4> end
|  5> %cpcm
|  6>     smd true
|  7>     smdsolvent "water"
|  8> end
|  9> * xyz 0 1
| 10> C -2.7581007074 0.1347979187 0.0034653742
| 11> C -1.362418603 -0.4118769041 0.2802615522
| 12> C -0.3014651499 0.5197722197 -0.2856638139
| 13> N 1.0555339107 0.0382738912 -0.0540154908
| 14> O 1.9676363301 0.7223774025 -0.4811379595
| 15> O 1.2194574538 -1.0036788301 0.5431796982
| 16> H -2.9280681232 0.2297991799 -1.0655997735
| 17> H -3.5080318321 -0.5363011322 0.4107896629
| 18> H -2.8863295096 1.1112181009 0.4627971592
| 19> H -1.2542247746 -1.4004651982 -0.1683762379
| 20> H -1.2124069827 -0.523351842 1.3551430194
| 21> H -0.412399543 0.6441052798 -1.3666221653
| 22> H -0.3636296687 1.5163664145 0.160756216
| 23> *
| 24>
| 25>                          ****END OF INPUT****

CARTESIAN COORDINATES (ANGSTROEM)
---------------------------------
  C     -2.758101    0.134798    0.003465
  C     -1.362419   -0.411877    0.280262
  C     -0.301465    0.519772   -0.285664
  N      1.055534    0.038274   -0.054015
  O      1.967636    0.722377   -0.481138
  O      1.219457   -1.003679    0.543180
  H     -2.928068    0.229799   -1.065600
  H     -3.508032   -0.536301    0.410790
  H     -2.886330    1.111218    0.462797
  H     -1.254225   -1.400465   -0.168376
  H     -1.212407   -0.523352    1.355143
  H     -0.412400    0.644105   -1.366622
  H     -0.363630    1.516366    0.160756

 Total Charge           Charge          ....    0
 Multiplicity           Mult            ....    1
 Number of Electrons    NEL             ....   48
 Basis Dimension        Dim             ....  164

ORBITAL ENERGIES
----------------

  NO   OCC          E(Eh)            E(eV)
   0   2.0000     -18.997746      -516.9550
   1   2.0000     -18.993180      -516.8307
   2   2.0000     -14.398620      -391.8064
   3   2.0000     -10.080481      -274.3038
   4   2.0000     -10.033206      -273.0174
   5   2.0000     -10.015769      -272.5429
   6   2.0000      -1.215365       -33.0718
   7   2.0000      -1.037624       -28.2352
   8   2.0000      -0.804420       -21.8894
   9   2.0000      -0.715745       -19.4764
  10   2.0000      -0.602029       -16.3820
  11   2.0000      -0.557242       -15.1633
  12   2.0000      -0.529221       -14.4008
  13   2.0000      -0.514152       -13.9908
  14   2.0000      -0.496972       -13.5233
  15   2.0000      -0.429825       -11.6961
  16   2.0000      -0.390776       -10.6336
  17   2.0000      -0.361609        -9.8399
  18   2.0000      -0.348158        -9.4739
  19   2.0000      -0.320516        -8.7217
  20   2.0000      -0.313103        -8.5200
  21   2.0000      -0.297578        -8.0975
  22   2.0000      -0.287425        -7.8212
  23   2.0000      -0.268705        -7.3118
  24   0.0000      -0.108583        -2.9547
  25   0.0000       0.087585         2.3833
  26   0.0000       0.096561         2.6276
  27   0.0000       0.140695         3.8285
  28   0.0000       0.144132         3.9220

MULLIKEN ATOMIC CHARGES
-----------------------
   0 C :   -0.509582
   1 C :   -0.187032
   2 C :   -0.362058
   3 N :    0.288262
   4 O :   -0.258181
   5 O :   -0.221923
   6 H :    0.160389
   7 H :    0.166114
   8 H :    0.160023
   9 H :    0.163145
  10 H :    0.163405
  11 H :    0.218665
  12 H :    0.218772
Sum of atomic charges:   -0.0000000

LOEWDIN ATOMIC CHARGES
----------------------
   0 C :   -0.419167
   1 C :   -0.271339
   2 C :    0.039416
   3 N :   -0.520350
   4 O :   -0.047919
   5 O :   -0.039004
   6 H :    0.157166
   7 H :    0.159155
   8 H :    0.157119
   9 H :    0.168730
  10 H :    0.168644
  11 H :    0.223687
  12 H :    0.223861

  Mayer bond orders larger than 0.100000
B(  0-C ,  1-C ) :   0.8883 B(  0-C ,  6-H ) :   0.9779 B(  0-C ,  7-H ) :   0.9683
B(  0-C ,  8-H ) :   0.9775 B(  1-C ,  2-C ) :   0.9099 B(  1-C ,  9-H ) :   0.9584
B(  1-C , 10-H ) :   0.9578 B(  2-C ,  3-N ) :   0.9426 B(  2-C , 11-H ) :   0.9134
B(  2-C , 12-H ) :   0.9124 B(  3-N ,  4-O ) :   1.7945 B(  3-N ,  5-O ) :   1.8228
B(  4-O ,  5-O ) :   0.2720

Dispersion correction           -0.002798118
FINAL SINGLE POINT ENERGY      -323.586151941168

DIPOLE MOMENT
-------------

Method             : SCF
Type of density    : Electron Density
Multiplicity       :   1
Irrep              :   0
Energy             :  -323.5958952702069951 Eh
Relativity type    :
Basis              : AO
                                X                 Y                 Z
Electronic contribution:      9.867810594      -0.463872602      -0.033282950
Nuclear contribution   :    -11.735110043       0.973021433      -0.197436288
                        -----------------------------------------
Total Dipole Moment    :     -1.867299450       0.509148831      -0.230719238
                        -----------------------------------------
Magnitude (a.u.)       :      1.949171909
Magnitude (Debye)      :      4.954401261

Rotational constants in cm-1:             0.325543             0.066346             0.056857
Rotational constants in MHz :          9759.540804          1988.988699          1704.522911

                             ****ORCA TERMINATED NORMALLY****
TOTAL RUN TIME: 0 days 0 hours 0 minutes 27 seconds 599 msec
