                         Program Version 6.0.0  -   RELEASE  -
|  1> ! pbe def2-sv(p) def2/J RI DEFGRID1 loosescf d4 GCP(DFT/SV(P)) printgap
|  2> %output
|  3>     printlevel normal
|  4> end
|  5> * xyz 0 1
|  6> C -3.6638383248 -0.4499102832 0.7691770883
|  7> C -2.6469283609 -0.2792835706 -0.3531760687
|  8> C -1.2464520958 -0.0210111506 0.1977165684
|  9> C -0.2196654375 0.149434236 -0.9316712544
| 10> C 1.1322993745 0.4181021832 -0.3304190675
| 11> O 1.6043335473 1.5186105684 -0.1335542929
| 12> O 1.752181327 -0.7076281888 0.0047576525
| 13> C 3.0280249151 -0.5975428769 0.640911543
| 14> H -3.3933771749 -1.2900813037 1.4043151538
| 15> H -3.7052515952 0.4454083474 1.3851175757
| 16> H -4.6540513787 -0.6321491806 0.3601517646
| 17> H -2.6306586076 -1.179806629 -0.9695265728
| 18> H -2.9439177074 0.5563941148 -0.9893646306
| 19> H -0.9431695601 -0.8568378466 0.8314352576
| 20> H -1.2551715248 0.88281746 0.8112265413
| 21> H -0.4975068466 0.994181406 -1.5611471235
| 22> H -0.1716292577 -0.763359048 -1.5240028446
| 23> H 3.7159484422 -0.0422272644 0.0023476525
| 24> H 3.3693833151 -1.6167530477 0.7910396069
| 25> H 2.9261270012 -0.0734493087 1.5918388452
| 26> *
| 27>
| 28>                          ****END OF INPUT****

CARTESIAN COORDINATES (ANGSTROEM)
---------------------------------
  C     -3.663838   -0.449910    0.769177
  C     -2.646928   -0.279284   -0.353176
  C     -1.246452   -0.021011    0.197717
  C     -0.219665    0.149434   -0.931671
  C      1.132299    0.418102   -0.330419
  O      1.604334    1.518611   -0.133554
  O      1.752181   -0.707628    0.004758
  C      3.028025   -0.597543    0.640912
  H     -3.393377   -1.290081    1.404315
  H     -3.705252    0.445408    1.385118
  H     -4.654051   -0.632149    0.360152
  H     -2.630659   -1.179807   -0.969527
  H     -2.943918    0.556394   -0.989365
  H     -0.943170   -0.856838    0.831435
  H     -1.255172    0.882817    0.811227
  H     -0.497507    0.994181   -1.561147
  H     -0.171629   -0.763359   -1.524003
  H      3.715948   -0.042227    0.002348
  H      3.369383   -1.616753    0.791040
  H      2.926127   -0.073449    1.591839

 Total Charge           Charge          ....    0
 Multiplicity           Mult            ....    1
 Number of Electrons    NEL             ....   64
 Basis Dimension        Dim             ....  136

ORBITAL ENERGIES
----------------

  NO   OCC          E(Eh)            E(eV)
   0   2.0000     -18.798179      -511.5245
   1   2.0000     -18.729141      -509.6458
   2   2.0000     -10.002220      -272.1742
   3   2.0000      -9.940979      -270.5078
   4   2.0000      -9.896127      -269.2873
   5   2.0000      -9.894168      -269.2340
   6   2.0000      -9.888978      -269.0928
   7   2.0000      -9.877742      -268.7870
   8   2.0000      -1.003936       -27.3185
   9   2.0000      -0.905888       -24.6505
  10   2.0000      -0.733774       -19.9670
  11   2.0000      -0.687172       -18.6989
  12   2.0000      -0.645717       -17.5709
  13   2.0000      -0.579245       -15.7621
  14   2.0000      -0.523700       -14.2506
  15   2.0000      -0.506497       -13.7825
  16   2.0000      -0.444183       -12.0868
  17   2.0000      -0.436154       -11.8684
  18   2.0000      -0.432291       -11.7632
  19   2.0000      -0.407093       -11.0776
  20   2.0000      -0.390650       -10.6301
  21   2.0000      -0.371520       -10.1096
  22   2.0000      -0.369577       -10.0567
  23   2.0000      -0.351835        -9.5739
  24   2.0000      -0.333589        -9.0774
  25   2.0000      -0.318600        -8.6696
  26   2.0000      -0.305723        -8.3191
  27   2.0000      -0.299306        -8.1445
  28   2.0000      -0.292197        -7.9511
  29   2.0000      -0.288576        -7.8525
  30   2.0000      -0.255769        -6.9598
  31   2.0000      -0.213209        -5.8017
  32   0.0000      -0.017239        -0.4691
  33   0.0000       0.037680         1.0253
  34   0.0000       0.053980         1.4689
  35   0.0000       0.066519         1.8101
  36   0.0000       0.068677         1.8688

MULLIKEN ATOMIC CHARGES
-----------------------
   0 C :   -0.257022
   1 C :   -0.162936
   2 C :   -0.243135
   3 C :   -0.083793
   4 C :    0.101187
   5 O :   -0.213337
   6 O :   -0.244752
   7 C :   -0.106425
   8 H :    0.098042
   9 H :    0.099844
  10 H :    0.103936
  11 H :    0.084597
  12 H :    0.086677
  13 H :    0.093098
  14 H :    0.098143
  15 H :    0.096324
  16 H :    0.092535
  17 H :    0.119555
  18 H :    0.119944
  19 H :    0.117517
Sum of atomic charges:   -0.0000000

LOEWDIN ATOMIC CHARGES
----------------------
   0 C :   -0.338834
   1 C :   -0.233169
   2 C :   -0.218521
   3 C :   -0.239657
   4 C :    0.033991
   5 O :   -0.171709
   6 O :   -0.076839
   7 C :   -0.203175
   8 H :    0.117371
   9 H :    0.118215
  10 H :    0.119849
  11 H :    0.115081
  12 H :    0.116065
  13 H :    0.117738
  14 H :    0.121006
  15 H :    0.133703
  16 H :    0.130365
  17 H :    0.119870
  18 H :    0.119825
  19 H :    0.118823

  Mayer bond orders larger than 0.100000
B(  0-C ,  1-C ) :   1.1584 B(  0-C ,  8-H ) :   0.9546 B(  0-C ,  9-H ) :   0.9543
B(  0-C , 10-H ) :   0.9525 B(  1-C ,  2-C ) :   1.1348 B(  1-C , 11-H ) :   0.9245
B(  1-C , 12-H ) :   0.9244 B(  2-C ,  3-C ) :   1.1300 B(  2-C , 13-H ) :   0.9222
B(  2-C , 14-H ) :   0.9223 B(  3-C ,  4-C ) :   1.0253 B(  3-C , 15-H ) :   0.8998
B(  3-C , 16-H ) :   0.8954 B(  4-C ,  5-O ) :   2.0598 B(  4-C ,  6-O ) :   1.2044
B(  6-O ,  7-C ) :   0.9401 B(  7-C , 17-H ) :   0.9512 B(  7-C , 18-H ) :   0.9591
B(  7-C , 19-H ) :   0.9529

Dispersion correction           -0.014549221
FINAL SINGLE POINT ENERGY      -385.452538096977

DIPOLE MOMENT
-------------

Method             : SCF
Type of density    : Electron Density
Multiplicity       :   1
Irrep              :   0
Energy             :  -385.5274730490183970 Eh
Relativity type    :
Basis              : AO
                                X                 Y                 Z
Electronic contribution:      9.394742873       2.609599294      -1.904725332
Nuclear contribution   :     -9.503838428      -3.342729548       1.999604313
                        -----------------------------------------
Total Dipole Moment    :     -0.109095555      -0.733130254       0.094878981
                        -----------------------------------------
Magnitude (a.u.)       :      0.747250849
Magnitude (Debye)      :      1.899360713

Rotational constants in cm-1:             0.162251             0.027424             0.025781
Rotational constants in MHz :          4864.167648           822.152332           772.887563

                             ****ORCA TERMINATED NORMALLY****
TOTAL RUN TIME: 0 days 0 hours 0 minutes 10 seconds 381 msec
