                         Program Version 6.0.0  -   RELEASE  -
|  1> ! pbe def2-sv(p) def2/J RI DEFGRID1 loosescf d4 GCP(DFT/SV(P)) printgap
|  2> %output
|  3>     printlevel normal
|  4> end
|  5> * xyz 0 1
|  6> C -3.5986943645 -0.7018065583 0.162305941
|  7> C -2.2556395396 -0.0608934401 0.486507844
|  8> C -1.1812847695 -0.4724714824 -0.5209952202
|  9> C 0.1105481065 0.2679964434 -0.2938680099
| 10> O 0.1971769202 1.4218565053 0.0704300272
| 11> O 1.1618772362 -0.4971762759 -0.5658803981
| 12> C 2.476436751 0.0650043825 -0.4115069326
| 13> C 2.9579166321 -0.0517146218 1.0266104933
| 14> H -3.9429938992 -0.3902159798 -0.8205663822
| 15> H -3.5149703941 -1.7855813438 0.1716233238
| 16> H -4.3427016941 -0.406972002 0.8970675029
| 17> H -1.9388917916 -0.3556976053 1.4888303619
| 18> H -2.34478315 1.026995524 0.4765725254
| 19> H -1.5182951542 -0.2237807305 -1.5306513691
| 20> H -0.9821333543 -1.543009531 -0.4820882862
| 21> H 3.1032733082 -0.514983594 -1.0892742334
| 22> H 2.446185452 1.1134956296 -0.7230567534
| 23> H 2.3221293241 0.5410101256 1.6806026029
| 24> H 2.9281736449 -1.0892631156 1.3481738307
| 25> H 3.9760514882 0.3169471573 1.096230198
| 26> *
| 27>
| 28>                          ****END OF INPUT****

CARTESIAN COORDINATES (ANGSTROEM)
---------------------------------
  C     -3.598694   -0.701807    0.162306
  C     -2.255640   -0.060893    0.486508
  C     -1.181285   -0.472471   -0.520995
  C      0.110548    0.267996   -0.293868
  O      0.197177    1.421857    0.070430
  O      1.161877   -0.497176   -0.565880
  C      2.476437    0.065004   -0.411507
  C      2.957917   -0.051715    1.026610
  H     -3.942994   -0.390216   -0.820566
  H     -3.514970   -1.785581    0.171623
  H     -4.342702   -0.406972    0.897068
  H     -1.938892   -0.355698    1.488830
  H     -2.344783    1.026996    0.476573
  H     -1.518295   -0.223781   -1.530651
  H     -0.982133   -1.543010   -0.482088
  H      3.103273   -0.514984   -1.089274
  H      2.446185    1.113496   -0.723057
  H      2.322129    0.541010    1.680603
  H      2.928174   -1.089263    1.348174
  H      3.976051    0.316947    1.096230

 Total Charge           Charge          ....    0
 Multiplicity           Mult            ....    1
 Number of Electrons    NEL             ....   64
 Basis Dimension        Dim             ....  136

ORBITAL ENERGIES
----------------

  NO   OCC          E(Eh)            E(eV)
   0   2.0000     -18.796444      -511.4773
   1   2.0000     -18.731727      -509.7162
   2   2.0000     -10.004696      -272.2416
   3   2.0000      -9.945697      -270.6362
   4   2.0000      -9.896660      -269.3018
   5   2.0000      -9.888083      -269.0684
   6   2.0000      -9.886068      -269.0136
   7   2.0000      -9.877197      -268.7722
   8   2.0000      -1.003106       -27.2959
   9   2.0000      -0.908497       -24.7215
  10   2.0000      -0.725419       -19.7397
  11   2.0000      -0.696827       -18.9616
  12   2.0000      -0.638755       -17.3814
  13   2.0000      -0.588313       -16.0088
  14   2.0000      -0.530402       -14.4330
  15   2.0000      -0.491871       -13.3845
  16   2.0000      -0.452295       -12.3076
  17   2.0000      -0.433813       -11.8047
  18   2.0000      -0.423292       -11.5184
  19   2.0000      -0.399667       -10.8755
  20   2.0000      -0.391072       -10.6416
  21   2.0000      -0.375224       -10.2104
  22   2.0000      -0.355699        -9.6790
  23   2.0000      -0.352037        -9.5794
  24   2.0000      -0.336428        -9.1547
  25   2.0000      -0.326848        -8.8940
  26   2.0000      -0.310223        -8.4416
  27   2.0000      -0.299010        -8.1365
  28   2.0000      -0.292636        -7.9630
  29   2.0000      -0.287035        -7.8106
  30   2.0000      -0.255387        -6.9494
  31   2.0000      -0.217960        -5.9310
  32   0.0000      -0.018792        -0.5113
  33   0.0000       0.039059         1.0628
  34   0.0000       0.053995         1.4693
  35   0.0000       0.076484         2.0812
  36   0.0000       0.082866         2.2549

MULLIKEN ATOMIC CHARGES
-----------------------
   0 C :   -0.253095
   1 C :   -0.214320
   2 C :   -0.158765
   3 C :    0.123227
   4 O :   -0.211326
   5 O :   -0.235974
   6 C :   -0.010863
   7 C :   -0.304733
   8 H :    0.097488
   9 H :    0.096635
  10 H :    0.105762
  11 H :    0.092263
  12 H :    0.108675
  13 H :    0.111138
  14 H :    0.096967
  15 H :    0.100755
  16 H :    0.105653
  17 H :    0.127206
  18 H :    0.111946
  19 H :    0.111362
Sum of atomic charges:   -0.0000000

LOEWDIN ATOMIC CHARGES
----------------------
   0 C :   -0.339627
   1 C :   -0.229735
   2 C :   -0.248869
   3 C :    0.039120
   4 O :   -0.171262
   5 O :   -0.068649
   6 C :   -0.113068
   7 C :   -0.356531
   8 H :    0.117369
   9 H :    0.116553
  10 H :    0.121230
  11 H :    0.118389
  12 H :    0.124407
  13 H :    0.142277
  14 H :    0.129265
  15 H :    0.116523
  16 H :    0.118622
  17 H :    0.130454
  18 H :    0.123757
  19 H :    0.129777

  Mayer bond orders larger than 0.100000
B(  0-C ,  1-C ) :   1.1575 B(  0-C ,  8-H ) :   0.9544 B(  0-C ,  9-H ) :   0.9527
B(  0-C , 10-H ) :   0.9534 B(  1-C ,  2-C ) :   1.1278 B(  1-C , 11-H ) :   0.9332
B(  1-C , 12-H ) :   0.9187 B(  2-C ,  3-C ) :   1.0211 B(  2-C , 13-H ) :   0.8872
B(  2-C , 14-H ) :   0.9098 B(  3-C ,  4-O ) :   2.0343 B(  3-C ,  5-O ) :   1.2235
B(  5-O ,  6-C ) :   0.9224 B(  6-C ,  7-C ) :   1.1729 B(  6-C , 15-H ) :   0.9377
B(  6-C , 16-H ) :   0.9141 B(  7-C , 17-H ) :   0.9463 B(  7-C , 18-H ) :   0.9490
B(  7-C , 19-H ) :   0.9446

Dispersion correction           -0.014620785
FINAL SINGLE POINT ENERGY      -385.458663633739

DIPOLE MOMENT
-------------

Method             : SCF
Type of density    : Electron Density
Multiplicity       :   1
Irrep              :   0
Energy             :  -385.5338551983303432 Eh
Relativity type    :
Basis              : AO
                                X                 Y                 Z
Electronic contribution:      3.817865708       2.514566476      -2.478523866
Nuclear contribution   :     -3.553283601      -3.092610663       2.350700966
                        -----------------------------------------
Total Dipole Moment    :      0.264582107      -0.578044187      -0.127822900
                        -----------------------------------------
Magnitude (a.u.)       :      0.648442340
Magnitude (Debye)      :      1.648209442

Rotational constants in cm-1:             0.180172             0.028886             0.028172
Rotational constants in MHz :          5401.432107           865.992650           844.571935

                             ****ORCA TERMINATED NORMALLY****
TOTAL RUN TIME: 0 days 0 hours 0 minutes 10 seconds 731 msec
