                         Program Version 6.0.0  -   RELEASE  -
|  1> ! r2scan-3c def2/J RI DEFGRID2 scfconv6 printgap
|  2> %output
|  3>     printlevel normal
|  4> end
|  5> * xyz 0 1
|  6> C -1.9905021197 0.6619504572 -0.54929544
|  7> C -1.4903360222 -0.5843576526 0.1708507452
|  8> C -0.2171528101 -0.3015349017 0.9746954133
|  9> N 0.8884390887 -0.0187653139 0.0662518439
| 10> O 1.4276976441 1.0673165891 0.1374754717
| 11> O 1.2114219258 -0.8815272343 -0.7243882918
| 12> H -2.9044958469 0.4391125516 -1.091994991
| 13> H -2.197592814 1.4593629605 0.160078455
| 14> H -1.2531560799 1.0234075593 -1.2640570923
| 15> H -1.2797932378 -1.3751463842 -0.5512018042
| 16> H -2.253721463 -0.9420492442 0.8604526535
| 17> H -0.3380460916 0.5638876275 1.6268732888
| 18> H 0.0547268862 -1.1883872959 1.5504769764
| 19> *
| 20>
| 21>                          ****END OF INPUT****

CARTESIAN COORDINATES (ANGSTROEM)
---------------------------------
  C     -1.990502    0.661950   -0.549295
  C     -1.490336   -0.584358    0.170851
  C     -0.217153   -0.301535    0.974695
  N      0.888439   -0.018765    0.066252
  O      1.427698    1.067317    0.137475
  O      1.211422   -0.881527   -0.724388
  H     -2.904496    0.439113   -1.091995
  H     -2.197593    1.459363    0.160078
  H     -1.253156    1.023408   -1.264057
  H     -1.279793   -1.375146   -0.551202
  H     -2.253721   -0.942049    0.860453
  H     -0.338046    0.563888    1.626873
  H      0.054727   -1.188387    1.550477

 Total Charge           Charge          ....    0
 Multiplicity           Mult            ....    1
 Number of Electrons    NEL             ....   48
 Basis Dimension        Dim             ....  164

ORBITAL ENERGIES
----------------

  NO   OCC          E(Eh)            E(eV)
   0   2.0000     -18.984323      -516.5897
   1   2.0000     -18.983660      -516.5716
   2   2.0000     -14.390300      -391.5800
   3   2.0000     -10.097046      -274.7546
   4   2.0000     -10.059205      -273.7249
   5   2.0000     -10.035808      -273.0882
   6   2.0000      -1.206115       -32.8200
   7   2.0000      -1.027008       -27.9463
   8   2.0000      -0.817631       -22.2489
   9   2.0000      -0.726909       -19.7802
  10   2.0000      -0.622818       -16.9477
  11   2.0000      -0.561980       -15.2923
  12   2.0000      -0.524668       -14.2769
  13   2.0000      -0.505920       -13.7668
  14   2.0000      -0.485952       -13.2234
  15   2.0000      -0.440268       -11.9803
  16   2.0000      -0.421172       -11.4607
  17   2.0000      -0.399495       -10.8708
  18   2.0000      -0.346713        -9.4345
  19   2.0000      -0.339571        -9.2402
  20   2.0000      -0.333674        -9.0797
  21   2.0000      -0.292266        -7.9530
  22   2.0000      -0.275791        -7.5047
  23   2.0000      -0.256095        -6.9687
  24   0.0000      -0.101120        -2.7516
  25   0.0000       0.076212         2.0738
  26   0.0000       0.089619         2.4387
  27   0.0000       0.107858         2.9350
  28   0.0000       0.112439         3.0596

MULLIKEN ATOMIC CHARGES
-----------------------
   0 C :   -0.474858
   1 C :   -0.230274
   2 C :   -0.275286
   3 N :    0.215330
   4 O :   -0.190600
   5 O :   -0.190426
   6 H :    0.154215
   7 H :    0.146608
   8 H :    0.163417
   9 H :    0.168908
  10 H :    0.150062
  11 H :    0.187804
  12 H :    0.175101
Sum of atomic charges:    0.0000000

LOEWDIN ATOMIC CHARGES
----------------------
   0 C :   -0.411741
   1 C :   -0.265236
   2 C :    0.024165
   3 N :   -0.547779
   4 O :   -0.001662
   5 O :   -0.008993
   6 H :    0.156229
   7 H :    0.154357
   8 H :    0.160381
   9 H :    0.175176
  10 H :    0.160665
  11 H :    0.200178
  12 H :    0.204259

  Mayer bond orders larger than 0.100000
B(  0-C ,  1-C ) :   0.9175 B(  0-C ,  6-H ) :   0.9670 B(  0-C ,  7-H ) :   0.9738
B(  0-C ,  8-H ) :   0.9761 B(  1-C ,  2-C ) :   0.9174 B(  1-C ,  9-H ) :   0.9599
B(  1-C , 10-H ) :   0.9584 B(  2-C ,  3-N ) :   0.8579 B(  2-C , 11-H ) :   0.9720
B(  2-C , 12-H ) :   0.9315 B(  3-N ,  4-O ) :   1.8456 B(  3-N ,  5-O ) :   1.8625
B(  4-O ,  5-O ) :   0.2764

Dispersion correction           -0.002953106
FINAL SINGLE POINT ENERGY      -323.580805722116

DIPOLE MOMENT
-------------

Method             : SCF
Type of density    : Electron Density
Multiplicity       :   1
Irrep              :   0
Energy             :  -323.5904441306274748 Eh
Relativity type    :
Basis              : AO
                                X                 Y                 Z
Electronic contribution:      8.268779367      -0.277224940      -0.451538977
Nuclear contribution   :     -9.499104552      -0.015932545       1.202484663
                        -----------------------------------------
Total Dipole Moment    :     -1.230325186      -0.293157485       0.750945686
                        -----------------------------------------
Magnitude (a.u.)       :      1.470904754
Magnitude (Debye)      :      3.738742763

Rotational constants in cm-1:             0.205114             0.085616             0.079168
Rotational constants in MHz :          6149.160018          2566.701296          2373.382323

                             ****ORCA TERMINATED NORMALLY****
TOTAL RUN TIME: 0 days 0 hours 0 minutes 20 seconds 790 msec
