                         Program Version 6.0.0  -   RELEASE  -
|  1> ! r2scan-3c def2/J RI DEFGRID2 scfconv6 printgap
|  2> %output
|  3>     printlevel normal
|  4> end
|  5> %cpcm
|  6>     smd true
|  7>     smdsolvent "water"
|  8> end
|  9> * xyz 0 1
| 10> C -1.9905021197 0.6619504572 -0.54929544
| 11> C -1.4903360222 -0.5843576526 0.1708507452
| 12> C -0.2171528101 -0.3015349017 0.9746954133
| 13> N 0.8884390887 -0.0187653139 0.0662518439
| 14> O 1.4276976441 1.0673165891 0.1374754717
| 15> O 1.2114219258 -0.8815272343 -0.7243882918
| 16> H -2.9044958469 0.4391125516 -1.091994991
| 17> H -2.197592814 1.4593629605 0.160078455
| 18> H -1.2531560799 1.0234075593 -1.2640570923
| 19> H -1.2797932378 -1.3751463842 -0.5512018042
| 20> H -2.253721463 -0.9420492442 0.8604526535
| 21> H -0.3380460916 0.5638876275 1.6268732888
| 22> H 0.0547268862 -1.1883872959 1.5504769764
| 23> *
| 24>
| 25>                          ****END OF INPUT****

CARTESIAN COORDINATES (ANGSTROEM)
---------------------------------
  C     -1.990502    0.661950   -0.549295
  C     -1.490336   -0.584358    0.170851
  C     -0.217153   -0.301535    0.974695
  N      0.888439   -0.018765    0.066252
  O      1.427698    1.067317    0.137475
  O      1.211422   -0.881527   -0.724388
  H     -2.904496    0.439113   -1.091995
  H     -2.197593    1.459363    0.160078
  H     -1.253156    1.023408   -1.264057
  H     -1.279793   -1.375146   -0.551202
  H     -2.253721   -0.942049    0.860453
  H     -0.338046    0.563888    1.626873
  H      0.054727   -1.188387    1.550477

 Total Charge           Charge          ....    0
 Multiplicity           Mult            ....    1
 Number of Electrons    NEL             ....   48
 Basis Dimension        Dim             ....  164

ORBITAL ENERGIES
----------------

  NO   OCC          E(Eh)            E(eV)
   0   2.0000     -18.996642      -516.9249
   1   2.0000     -18.995495      -516.8937
   2   2.0000     -14.398012      -391.7898
   3   2.0000     -10.080136      -274.2945
   4   2.0000     -10.039516      -273.1891
   5   2.0000     -10.015839      -272.5448
   6   2.0000      -1.216052       -33.0905
   7   2.0000      -1.038332       -28.2544
   8   2.0000      -0.806798       -21.9541
   9   2.0000      -0.712736       -19.3945
  10   2.0000      -0.610560       -16.6142
  11   2.0000      -0.559077       -15.2133
  12   2.0000      -0.528164       -14.3721
  13   2.0000      -0.506544       -13.7838
  14   2.0000      -0.494183       -13.4474
  15   2.0000      -0.424125       -11.5410
  16   2.0000      -0.405219       -11.0266
  17   2.0000      -0.381139       -10.3713
  18   2.0000      -0.329175        -8.9573
  19   2.0000      -0.321182        -8.7398
  20   2.0000      -0.315255        -8.5785
  21   2.0000      -0.303884        -8.2691
  22   2.0000      -0.286483        -7.7956
  23   2.0000      -0.269334        -7.3289
  24   0.0000      -0.109805        -2.9880
  25   0.0000       0.093177         2.5355
  26   0.0000       0.105870         2.8809
  27   0.0000       0.126274         3.4361
  28   0.0000       0.131295         3.5727

MULLIKEN ATOMIC CHARGES
-----------------------
   0 C :   -0.524385
   1 C :   -0.224044
   2 C :   -0.279694
   3 N :    0.256743
   4 O :   -0.248555
   5 O :   -0.246612
   6 H :    0.167654
   7 H :    0.164456
   8 H :    0.164981
   9 H :    0.168192
  10 H :    0.176102
  11 H :    0.210294
  12 H :    0.214869
Sum of atomic charges:    0.0000000

LOEWDIN ATOMIC CHARGES
----------------------
   0 C :   -0.419604
   1 C :   -0.257816
   2 C :    0.039103
   3 N :   -0.540084
   4 O :   -0.036045
   5 O :   -0.041590
   6 H :    0.159938
   7 H :    0.159265
   8 H :    0.158158
   9 H :    0.173894
  10 H :    0.171865
  11 H :    0.211216
  12 H :    0.221700

  Mayer bond orders larger than 0.100000
B(  0-C ,  1-C ) :   0.9036 B(  0-C ,  6-H ) :   0.9639 B(  0-C ,  7-H ) :   0.9713
B(  0-C ,  8-H ) :   0.9773 B(  1-C ,  2-C ) :   0.8916 B(  1-C ,  9-H ) :   0.9640
B(  1-C , 10-H ) :   0.9524 B(  2-C ,  3-N ) :   0.8758 B(  2-C , 11-H ) :   0.9595
B(  2-C , 12-H ) :   0.9143 B(  3-N ,  4-O ) :   1.7988 B(  3-N ,  5-O ) :   1.8174
B(  4-O ,  5-O ) :   0.2668

Dispersion correction           -0.002953106
FINAL SINGLE POINT ENERGY      -323.585825353981

DIPOLE MOMENT
-------------

Method             : SCF
Type of density    : Electron Density
Multiplicity       :   1
Irrep              :   0
Energy             :  -323.5954637624926136 Eh
Relativity type    :
Basis              : AO
                                X                 Y                 Z
Electronic contribution:      7.910891869      -0.399921090      -0.127094959
Nuclear contribution   :     -9.499104552      -0.015932545       1.202484663
                        -----------------------------------------
Total Dipole Moment    :     -1.588212683      -0.415853635       1.075389704
                        -----------------------------------------
Magnitude (a.u.)       :      1.962604593
Magnitude (Debye)      :      4.988544429

Rotational constants in cm-1:             0.205114             0.085616             0.079168
Rotational constants in MHz :          6149.160018          2566.701296          2373.382323

                             ****ORCA TERMINATED NORMALLY****
TOTAL RUN TIME: 0 days 0 hours 0 minutes 29 seconds 198 msec
