                         Program Version 6.0.0  -   RELEASE  -
|  1> ! pbe def2-sv(p) def2/J RI DEFGRID1 loosescf d4 GCP(DFT/SV(P)) printgap
|  2> %output
|  3>     printlevel normal
|  4> end
|  5> * xyz 0 1
|  6> C -3.9287087316 0.0873189564 -0.2959187663
|  7> C -2.7001201415 -0.2561856464 0.5376324764
|  8> C -1.4078898736 0.0781509983 -0.203116607
|  9> C -0.1740443503 -0.26004863 0.6284231644
| 10> C 1.1069196005 0.0212962761 -0.1104191994
| 11> O 1.195854587 0.3456201972 -1.2749400053
| 12> O 2.1662860684 -0.1352883756 0.6812943057
| 13> C 3.4573736466 0.085661827 0.1067761676
| 14> H -3.9217912652 -0.4687965657 -1.2304275807
| 15> H -4.8385721842 -0.1589716381 0.2452700247
| 16> H -3.9441293554 1.148851166 -0.5314965817
| 17> H -2.7318441067 0.2999600962 1.476536665
| 18> H -2.7125328584 -1.3207235271 0.779471561
| 19> H -1.3903216751 1.1405469961 -0.4544665715
| 20> H -1.3653156567 -0.4749148964 -1.1435102179
| 21> H -0.1710875685 -1.3194776881 0.8947484595
| 22> H -0.1582644738 0.3075764856 1.5601874319
| 23> H 4.1638738852 -0.0312208176 0.9222255666
| 24> H 3.509714211 1.0883489902 -0.3190051849
| 25> H 3.6441247688 -0.644581178 -0.6813759896
| 26> *
| 27>
| 28>                          ****END OF INPUT****

CARTESIAN COORDINATES (ANGSTROEM)
---------------------------------
  C     -3.928709    0.087319   -0.295919
  C     -2.700120   -0.256186    0.537632
  C     -1.407890    0.078151   -0.203117
  C     -0.174044   -0.260049    0.628423
  C      1.106920    0.021296   -0.110419
  O      1.195855    0.345620   -1.274940
  O      2.166286   -0.135288    0.681294
  C      3.457374    0.085662    0.106776
  H     -3.921791   -0.468797   -1.230428
  H     -4.838572   -0.158972    0.245270
  H     -3.944129    1.148851   -0.531497
  H     -2.731844    0.299960    1.476537
  H     -2.712533   -1.320724    0.779472
  H     -1.390322    1.140547   -0.454467
  H     -1.365316   -0.474915   -1.143510
  H     -0.171088   -1.319478    0.894748
  H     -0.158264    0.307576    1.560187
  H      4.163874   -0.031221    0.922226
  H      3.509714    1.088349   -0.319005
  H      3.644125   -0.644581   -0.681376

 Total Charge           Charge          ....    0
 Multiplicity           Mult            ....    1
 Number of Electrons    NEL             ....   64
 Basis Dimension        Dim             ....  136

ORBITAL ENERGIES
----------------

  NO   OCC          E(Eh)            E(eV)
   0   2.0000     -18.796237      -511.4716
   1   2.0000     -18.735210      -509.8110
   2   2.0000     -10.002420      -272.1797
   3   2.0000      -9.939550      -270.4689
   4   2.0000      -9.896269      -269.2912
   5   2.0000      -9.884884      -268.9814
   6   2.0000      -9.884034      -268.9582
   7   2.0000      -9.873139      -268.6618
   8   2.0000      -1.002961       -27.2920
   9   2.0000      -0.909009       -24.7354
  10   2.0000      -0.728237       -19.8163
  11   2.0000      -0.685661       -18.6578
  12   2.0000      -0.645327       -17.5602
  13   2.0000      -0.575799       -15.6683
  14   2.0000      -0.520040       -14.1510
  15   2.0000      -0.499010       -13.5787
  16   2.0000      -0.445182       -12.1140
  17   2.0000      -0.443753       -12.0751
  18   2.0000      -0.420789       -11.4502
  19   2.0000      -0.412136       -11.2148
  20   2.0000      -0.384206       -10.4548
  21   2.0000      -0.378554       -10.3010
  22   2.0000      -0.370951       -10.0941
  23   2.0000      -0.339848        -9.2477
  24   2.0000      -0.336464        -9.1556
  25   2.0000      -0.308538        -8.3957
  26   2.0000      -0.305610        -8.3161
  27   2.0000      -0.295417        -8.0387
  28   2.0000      -0.286315        -7.7910
  29   2.0000      -0.286035        -7.7834
  30   2.0000      -0.256685        -6.9847
  31   2.0000      -0.219164        -5.9637
  32   0.0000      -0.017485        -0.4758
  33   0.0000       0.036299         0.9877
  34   0.0000       0.055251         1.5035
  35   0.0000       0.067943         1.8488
  36   0.0000       0.072566         1.9746

MULLIKEN ATOMIC CHARGES
-----------------------
   0 C :   -0.254808
   1 C :   -0.174622
   2 C :   -0.198845
   3 C :   -0.155443
   4 C :    0.123571
   5 O :   -0.209691
   6 O :   -0.243859
   7 C :   -0.107302
   8 H :    0.098767
   9 H :    0.101095
  10 H :    0.098226
  11 H :    0.081111
  12 H :    0.081202
  13 H :    0.091716
  14 H :    0.095981
  15 H :    0.109424
  16 H :    0.106350
  17 H :    0.120494
  18 H :    0.119194
  19 H :    0.117439
Sum of atomic charges:   -0.0000000

LOEWDIN ATOMIC CHARGES
----------------------
   0 C :   -0.339128
   1 C :   -0.233667
   2 C :   -0.223332
   3 C :   -0.249865
   4 C :    0.037128
   5 O :   -0.165158
   6 O :   -0.080864
   7 C :   -0.203246
   8 H :    0.117932
   9 H :    0.118346
  10 H :    0.117653
  11 H :    0.113232
  12 H :    0.113346
  13 H :    0.120141
  14 H :    0.121907
  15 H :    0.140429
  16 H :    0.137085
  17 H :    0.120068
  18 H :    0.119340
  19 H :    0.118654

  Mayer bond orders larger than 0.100000
B(  0-C ,  1-C ) :   1.1630 B(  0-C ,  8-H ) :   0.9540 B(  0-C ,  9-H ) :   0.9531
B(  0-C , 10-H ) :   0.9542 B(  1-C ,  2-C ) :   1.1308 B(  1-C , 11-H ) :   0.9237
B(  1-C , 12-H ) :   0.9243 B(  2-C ,  3-C ) :   1.1321 B(  2-C , 13-H ) :   0.9260
B(  2-C , 14-H ) :   0.9205 B(  3-C ,  4-C ) :   1.0179 B(  3-C , 15-H ) :   0.8909
B(  3-C , 16-H ) :   0.8977 B(  4-C ,  5-O ) :   2.0541 B(  4-C ,  6-O ) :   1.2148
B(  6-O ,  7-C ) :   0.9408 B(  7-C , 17-H ) :   0.9597 B(  7-C , 18-H ) :   0.9511
B(  7-C , 19-H ) :   0.9539

Dispersion correction           -0.014398107
FINAL SINGLE POINT ENERGY      -385.454001262241

DIPOLE MOMENT
-------------

Method             : SCF
Type of density    : Electron Density
Multiplicity       :   1
Irrep              :   0
Energy             :  -385.5292110983206157 Eh
Relativity type    :
Basis              : AO
                                X                 Y                 Z
Electronic contribution:      9.493145220       0.237747563      -0.811364094
Nuclear contribution   :     -9.253143837      -0.403485029       1.415482210
                        -----------------------------------------
Total Dipole Moment    :      0.240001383      -0.165737466       0.604118116
                        -----------------------------------------
Magnitude (a.u.)       :      0.670841463
Magnitude (Debye)      :      1.705143490

Rotational constants in cm-1:             0.252787             0.024842             0.023125
Rotational constants in MHz :          7578.372097           744.749389           693.275303

                             ****ORCA TERMINATED NORMALLY****
TOTAL RUN TIME: 0 days 0 hours 0 minutes 9 seconds 551 msec
