                         Program Version 6.0.0  -   RELEASE  -
|  1> ! r2scan-3c def2/J RI DEFGRID2 scfconv6 printgap
|  2> %output
|  3>     printlevel normal
|  4> end
|  5> * xyz 0 1
|  6> C -2.3328233521 -1.2982310116 -0.1848816048
|  7> C -1.9103990453 -0.2176062703 0.8044898427
|  8> C -1.5516998307 1.1105788355 0.1359921644
|  9> C -0.3737651663 1.0013417503 -0.8417109948
| 10> C 0.8538592539 0.4992150178 -0.130062796
| 11> O 1.4337772347 1.0835154978 0.7614022506
| 12> O 1.2381824138 -0.688532124 -0.5867091006
| 13> C 2.3903251434 -1.2870708463 0.0112105861
| 14> H -2.6952319719 -2.172582092 0.3499592907
| 15> H -3.1308013107 -0.9326774082 -0.8267147068
| 16> H -1.4959191339 -1.6062627426 -0.8059575727
| 17> H -2.7285363751 -0.034292735 1.5042893474
| 18> H -1.0555261649 -0.5699089317 1.3877482126
| 19> H -1.2899366972 1.8343093716 0.9105954874
| 20> H -2.4177317071 1.4885658633 -0.4086416357
| 21> H -0.1513302775 1.9933979763 -1.2363905272
| 22> H -0.6060705467 0.3263288519 -1.6625413417
| 23> H 3.2609477086 -0.6469128747 -0.135684611
| 24> H 2.5185824763 -2.2419075905 -0.4884667569
| 25> H 2.227762253 -1.4226962412 1.0812389189
| 26> *
| 27>
| 28>                          ****END OF INPUT****

CARTESIAN COORDINATES (ANGSTROEM)
---------------------------------
  C     -2.332823   -1.298231   -0.184882
  C     -1.910399   -0.217606    0.804490
  C     -1.551700    1.110579    0.135992
  C     -0.373765    1.001342   -0.841711
  C      0.853859    0.499215   -0.130063
  O      1.433777    1.083515    0.761402
  O      1.238182   -0.688532   -0.586709
  C      2.390325   -1.287071    0.011211
  H     -2.695232   -2.172582    0.349959
  H     -3.130801   -0.932677   -0.826715
  H     -1.495919   -1.606263   -0.805958
  H     -2.728536   -0.034293    1.504289
  H     -1.055526   -0.569909    1.387748
  H     -1.289937    1.834309    0.910595
  H     -2.417732    1.488566   -0.408642
  H     -0.151330    1.993398   -1.236391
  H     -0.606071    0.326329   -1.662541
  H      3.260948   -0.646913   -0.135685
  H      2.518582   -2.241908   -0.488467
  H      2.227762   -1.422696    1.081239

 Total Charge           Charge          ....    0
 Multiplicity           Mult            ....    1
 Number of Electrons    NEL             ....   64
 Basis Dimension        Dim             ....  222

ORBITAL ENERGIES
----------------

  NO   OCC          E(Eh)            E(eV)
   0   2.0000     -19.000986      -517.0431
   1   2.0000     -18.929508      -515.0981
   2   2.0000     -10.152502      -276.2636
   3   2.0000     -10.087377      -274.4915
   4   2.0000     -10.041072      -273.2315
   5   2.0000     -10.034476      -273.0520
   6   2.0000     -10.028143      -272.8796
   7   2.0000     -10.017235      -272.5828
   8   2.0000      -1.074324       -29.2339
   9   2.0000      -0.976502       -26.5720
  10   2.0000      -0.779460       -21.2102
  11   2.0000      -0.724357       -19.7108
  12   2.0000      -0.686197       -18.6724
  13   2.0000      -0.623581       -16.9685
  14   2.0000      -0.556350       -15.1390
  15   2.0000      -0.523963       -14.2578
  16   2.0000      -0.469645       -12.7797
  17   2.0000      -0.458874       -12.4866
  18   2.0000      -0.447837       -12.1863
  19   2.0000      -0.427648       -11.6369
  20   2.0000      -0.419808       -11.4236
  21   2.0000      -0.390171       -10.6171
  22   2.0000      -0.375442       -10.2163
  23   2.0000      -0.362340        -9.8598
  24   2.0000      -0.355769        -9.6810
  25   2.0000      -0.341060        -9.2807
  26   2.0000      -0.320933        -8.7330
  27   2.0000      -0.304057        -8.2738
  28   2.0000      -0.298332        -8.1180
  29   2.0000      -0.297213        -8.0876
  30   2.0000      -0.275091        -7.4856
  31   2.0000      -0.236782        -6.4432
  32   0.0000      -0.017693        -0.4815
  33   0.0000       0.061720         1.6795
  34   0.0000       0.089528         2.4362
  35   0.0000       0.106049         2.8858
  36   0.0000       0.117466         3.1964

MULLIKEN ATOMIC CHARGES
-----------------------
   0 C :   -0.504942
   1 C :   -0.211070
   2 C :   -0.287172
   3 C :   -0.323821
   4 C :    0.335514
   5 O :   -0.410567
   6 O :   -0.176804
   7 C :   -0.296032
   8 H :    0.146870
   9 H :    0.146452
  10 H :    0.160847
  11 H :    0.145337
  12 H :    0.146983
  13 H :    0.166066
  14 H :    0.151673
  15 H :    0.165744
  16 H :    0.170891
  17 H :    0.161339
  18 H :    0.150757
  19 H :    0.161934
Sum of atomic charges:   -0.0000000

LOEWDIN ATOMIC CHARGES
----------------------
   0 C :   -0.425568
   1 C :   -0.311286
   2 C :   -0.285848
   3 C :   -0.231089
   4 C :    0.348151
   5 O :   -0.423745
   6 O :   -0.607048
   7 C :   -0.045527
   8 H :    0.152310
   9 H :    0.150138
  10 H :    0.153895
  11 H :    0.154355
  12 H :    0.157632
  13 H :    0.168132
  14 H :    0.156598
  15 H :    0.181401
  16 H :    0.177215
  17 H :    0.177123
  18 H :    0.176175
  19 H :    0.176983

  Mayer bond orders larger than 0.100000
B(  0-C ,  1-C ) :   0.8884 B(  0-C ,  8-H ) :   0.9691 B(  0-C ,  9-H ) :   0.9825
B(  0-C , 10-H ) :   0.9751 B(  1-C ,  2-C ) :   0.9018 B(  1-C , 11-H ) :   0.9599
B(  1-C , 12-H ) :   0.9665 B(  2-C ,  3-C ) :   0.8740 B(  2-C , 13-H ) :   0.9720
B(  2-C , 14-H ) :   0.9824 B(  3-C ,  4-C ) :   0.9241 B(  3-C , 15-H ) :   0.9395
B(  3-C , 16-H ) :   1.0056 B(  4-C ,  5-O ) :   1.8266 B(  4-C ,  6-O ) :   1.0578
B(  6-O ,  7-C ) :   0.8537 B(  7-C , 17-H ) :   0.9620 B(  7-C , 18-H ) :   0.9690
B(  7-C , 19-H ) :   0.9620

Dispersion correction           -0.005434981
FINAL SINGLE POINT ENERGY      -386.231167257484

DIPOLE MOMENT
-------------

Method             : SCF
Type of density    : Electron Density
Multiplicity       :   1
Irrep              :   0
Energy             :  -386.2377621742372185 Eh
Relativity type    :
Basis              : AO
                                X                 Y                 Z
Electronic contribution:      6.824207800       3.162534881      -0.118205818
Nuclear contribution   :     -7.056477270      -3.732398318      -0.307535535
                        -----------------------------------------
Total Dipole Moment    :     -0.232269470      -0.569863437      -0.425741353
                        -----------------------------------------
Magnitude (a.u.)       :      0.748297497
Magnitude (Debye)      :      1.902021080

Rotational constants in cm-1:             0.101316             0.044763             0.036905
Rotational constants in MHz :          3037.388619          1341.974249          1106.386568

                             ****ORCA TERMINATED NORMALLY****
TOTAL RUN TIME: 0 days 0 hours 0 minutes 26 seconds 864 msec
