                         Program Version 6.0.0  -   RELEASE  -
|  1> ! r2scan-3c def2/J RI DEFGRID2 scfconv6 printgap
|  2> %output
|  3>     printlevel normal
|  4> end
|  5> %cpcm
|  6>     smd true
|  7>     smdsolvent "water"
|  8> end
|  9> * xyz 0 1
| 10> C -2.3328233521 -1.2982310116 -0.1848816048
| 11> C -1.9103990453 -0.2176062703 0.8044898427
| 12> C -1.5516998307 1.1105788355 0.1359921644
| 13> C -0.3737651663 1.0013417503 -0.8417109948
| 14> C 0.8538592539 0.4992150178 -0.130062796
| 15> O 1.4337772347 1.0835154978 0.7614022506
| 16> O 1.2381824138 -0.688532124 -0.5867091006
| 17> C 2.3903251434 -1.2870708463 0.0112105861
| 18> H -2.6952319719 -2.172582092 0.3499592907
| 19> H -3.1308013107 -0.9326774082 -0.8267147068
| 20> H -1.4959191339 -1.6062627426 -0.8059575727
| 21> H -2.7285363751 -0.034292735 1.5042893474
| 22> H -1.0555261649 -0.5699089317 1.3877482126
| 23> H -1.2899366972 1.8343093716 0.9105954874
| 24> H -2.4177317071 1.4885658633 -0.4086416357
| 25> H -0.1513302775 1.9933979763 -1.2363905272
| 26> H -0.6060705467 0.3263288519 -1.6625413417
| 27> H 3.2609477086 -0.6469128747 -0.135684611
| 28> H 2.5185824763 -2.2419075905 -0.4884667569
| 29> H 2.227762253 -1.4226962412 1.0812389189
| 30> *
| 31>
| 32>                          ****END OF INPUT****

CARTESIAN COORDINATES (ANGSTROEM)
---------------------------------
  C     -2.332823   -1.298231   -0.184882
  C     -1.910399   -0.217606    0.804490
  C     -1.551700    1.110579    0.135992
  C     -0.373765    1.001342   -0.841711
  C      0.853859    0.499215   -0.130063
  O      1.433777    1.083515    0.761402
  O      1.238182   -0.688532   -0.586709
  C      2.390325   -1.287071    0.011211
  H     -2.695232   -2.172582    0.349959
  H     -3.130801   -0.932677   -0.826715
  H     -1.495919   -1.606263   -0.805958
  H     -2.728536   -0.034293    1.504289
  H     -1.055526   -0.569909    1.387748
  H     -1.289937    1.834309    0.910595
  H     -2.417732    1.488566   -0.408642
  H     -0.151330    1.993398   -1.236391
  H     -0.606071    0.326329   -1.662541
  H      3.260948   -0.646913   -0.135685
  H      2.518582   -2.241908   -0.488467
  H      2.227762   -1.422696    1.081239

 Total Charge           Charge          ....    0
 Multiplicity           Mult            ....    1
 Number of Electrons    NEL             ....   64
 Basis Dimension        Dim             ....  222

ORBITAL ENERGIES
----------------

  NO   OCC          E(Eh)            E(eV)
   0   2.0000     -19.005507      -517.1661
   1   2.0000     -18.944574      -515.5081
   2   2.0000     -10.162257      -276.5291
   3   2.0000     -10.076402      -274.1929
   4   2.0000     -10.035082      -273.0685
   5   2.0000     -10.027210      -272.8543
   6   2.0000     -10.019910      -272.6556
   7   2.0000     -10.008296      -272.3396
   8   2.0000      -1.080407       -29.3994
   9   2.0000      -0.989383       -26.9225
  10   2.0000      -0.773646       -21.0520
  11   2.0000      -0.719110       -19.5680
  12   2.0000      -0.679273       -18.4840
  13   2.0000      -0.616405       -16.7732
  14   2.0000      -0.550237       -14.9727
  15   2.0000      -0.521156       -14.1814
  16   2.0000      -0.469760       -12.7828
  17   2.0000      -0.461359       -12.5542
  18   2.0000      -0.450226       -12.2513
  19   2.0000      -0.421315       -11.4646
  20   2.0000      -0.418527       -11.3887
  21   2.0000      -0.386638       -10.5209
  22   2.0000      -0.372109       -10.1256
  23   2.0000      -0.355995        -9.6871
  24   2.0000      -0.348408        -9.4807
  25   2.0000      -0.338623        -9.2144
  26   2.0000      -0.321076        -8.7369
  27   2.0000      -0.297023        -8.0824
  28   2.0000      -0.291340        -7.9278
  29   2.0000      -0.289766        -7.8849
  30   2.0000      -0.281432        -7.6582
  31   2.0000      -0.252571        -6.8728
  32   0.0000      -0.024908        -0.6778
  33   0.0000       0.066994         1.8230
  34   0.0000       0.098348         2.6762
  35   0.0000       0.117142         3.1876
  36   0.0000       0.122381         3.3302

MULLIKEN ATOMIC CHARGES
-----------------------
   0 C :   -0.532345
   1 C :   -0.223331
   2 C :   -0.300967
   3 C :   -0.340313
   4 C :    0.378027
   5 O :   -0.496885
   6 O :   -0.191165
   7 C :   -0.331915
   8 H :    0.157588
   9 H :    0.159475
  10 H :    0.163264
  11 H :    0.156089
  12 H :    0.152262
  13 H :    0.164870
  14 H :    0.171008
  15 H :    0.191448
  16 H :    0.186956
  17 H :    0.178360
  18 H :    0.178804
  19 H :    0.178769
Sum of atomic charges:   -0.0000000

LOEWDIN ATOMIC CHARGES
----------------------
   0 C :   -0.431273
   1 C :   -0.313674
   2 C :   -0.285802
   3 C :   -0.228765
   4 C :    0.358215
   5 O :   -0.485477
   6 O :   -0.607305
   7 C :   -0.043198
   8 H :    0.154696
   9 H :    0.154400
  10 H :    0.154170
  11 H :    0.157681
  12 H :    0.157951
  13 H :    0.165650
  14 H :    0.164287
  15 H :    0.190066
  16 H :    0.184779
  17 H :    0.182574
  18 H :    0.188404
  19 H :    0.182620

  Mayer bond orders larger than 0.100000
B(  0-C ,  1-C ) :   0.8868 B(  0-C ,  8-H ) :   0.9672 B(  0-C ,  9-H ) :   0.9787
B(  0-C , 10-H ) :   0.9740 B(  1-C ,  2-C ) :   0.8939 B(  1-C , 11-H ) :   0.9581
B(  1-C , 12-H ) :   0.9676 B(  2-C ,  3-C ) :   0.8579 B(  2-C , 13-H ) :   0.9772
B(  2-C , 14-H ) :   0.9759 B(  3-C ,  4-C ) :   0.9261 B(  3-C , 15-H ) :   0.9344
B(  3-C , 16-H ) :   0.9956 B(  4-C ,  5-O ) :   1.7588 B(  4-C ,  6-O ) :   1.0829
B(  6-O ,  7-C ) :   0.8337 B(  7-C , 17-H ) :   0.9566 B(  7-C , 18-H ) :   0.9591
B(  7-C , 19-H ) :   0.9567

Dispersion correction           -0.005434981
FINAL SINGLE POINT ENERGY      -386.236242237850

DIPOLE MOMENT
-------------

Method             : SCF
Type of density    : Electron Density
Multiplicity       :   1
Irrep              :   0
Energy             :  -386.2428371546025119 Eh
Relativity type    :
Basis              : AO
                                X                 Y                 Z
Electronic contribution:      6.688253849       2.954987075      -0.356674803
Nuclear contribution   :     -7.056477270      -3.732398318      -0.307535535
                        -----------------------------------------
Total Dipole Moment    :     -0.368223422      -0.777411243      -0.664210338
                        -----------------------------------------
Magnitude (a.u.)       :      1.086799017
Magnitude (Debye)      :      2.762423567

Rotational constants in cm-1:             0.101316             0.044763             0.036905
Rotational constants in MHz :          3037.388619          1341.974249          1106.386568

                             ****ORCA TERMINATED NORMALLY****
TOTAL RUN TIME: 0 days 0 hours 0 minutes 35 seconds 378 msec
