                         Program Version 6.0.0  -   RELEASE  -
|  1> ! pbe def2-sv(p) def2/J RI DEFGRID1 loosescf d4 GCP(DFT/SV(P)) printgap
|  2> %output
|  3>     printlevel normal
|  4> end
|  5> * xyz 0 1
|  6> C -3.2505315348 -0.8999548553 -0.3198884185
|  7> C -1.8576906139 -0.627572914 0.2352573122
|  8> C -1.4996082976 0.8548106237 0.1522145186
|  9> C -0.1158589915 1.1435642999 0.7451413469
| 10> C 0.9570459453 0.4829392782 -0.0799986488
| 11> O 1.1564427879 0.690432869 -1.2587534328
| 12> O 1.6669665413 -0.3813182224 0.6369127637
| 13> C 2.720879191 -1.0924403328 -0.0182328763
| 14> H -3.4873628619 -1.9585731705 -0.2533844296
| 15> H -3.997721685 -0.3429892914 0.239969643
| 16> H -3.3084533918 -0.5991561517 -1.3633373152
| 17> H -1.8096393593 -0.9534311362 1.2763430293
| 18> H -1.1222080987 -1.2076445247 -0.3281592151
| 19> H -2.2444115112 1.4393020288 0.6935139992
| 20> H -1.5062478295 1.1735299596 -0.8922400542
| 21> H -0.0455262341 0.7769519815 1.7683457063
| 22> H 0.0662811246 2.2189638059 0.7270231214
| 23> H 2.948379221 -1.9405128272 0.6201396121
| 24> H 3.590401919 -0.4433991354 -0.1249887627
| 25> H 2.3936590225 -1.4176073496 -1.0066429687
| 26> *
| 27>
| 28>                          ****END OF INPUT****

CARTESIAN COORDINATES (ANGSTROEM)
---------------------------------
  C     -3.250532   -0.899955   -0.319888
  C     -1.857691   -0.627573    0.235257
  C     -1.499608    0.854811    0.152215
  C     -0.115859    1.143564    0.745141
  C      0.957046    0.482939   -0.079999
  O      1.156443    0.690433   -1.258753
  O      1.666967   -0.381318    0.636913
  C      2.720879   -1.092440   -0.018233
  H     -3.487363   -1.958573   -0.253384
  H     -3.997722   -0.342989    0.239970
  H     -3.308453   -0.599156   -1.363337
  H     -1.809639   -0.953431    1.276343
  H     -1.122208   -1.207645   -0.328159
  H     -2.244412    1.439302    0.693514
  H     -1.506248    1.173530   -0.892240
  H     -0.045526    0.776952    1.768346
  H      0.066281    2.218964    0.727023
  H      2.948379   -1.940513    0.620140
  H      3.590402   -0.443399   -0.124989
  H      2.393659   -1.417607   -1.006643

 Total Charge           Charge          ....    0
 Multiplicity           Mult            ....    1
 Number of Electrons    NEL             ....   64
 Basis Dimension        Dim             ....  136

ORBITAL ENERGIES
----------------

  NO   OCC          E(Eh)            E(eV)
   0   2.0000     -18.799873      -511.5706
   1   2.0000     -18.730907      -509.6939
   2   2.0000     -10.003968      -272.2218
   3   2.0000      -9.941218      -270.5143
   4   2.0000      -9.896168      -269.2884
   5   2.0000      -9.890034      -269.1215
   6   2.0000      -9.885736      -269.0046
   7   2.0000      -9.875175      -268.7172
   8   2.0000      -1.004872       -27.3440
   9   2.0000      -0.907981       -24.7074
  10   2.0000      -0.731519       -19.9056
  11   2.0000      -0.684634       -18.6298
  12   2.0000      -0.647250       -17.6126
  13   2.0000      -0.576920       -15.6988
  14   2.0000      -0.526296       -14.3212
  15   2.0000      -0.499792       -13.6000
  16   2.0000      -0.452080       -12.3017
  17   2.0000      -0.436114       -11.8673
  18   2.0000      -0.423087       -11.5128
  19   2.0000      -0.402744       -10.9592
  20   2.0000      -0.393054       -10.6955
  21   2.0000      -0.381442       -10.3796
  22   2.0000      -0.368821       -10.0361
  23   2.0000      -0.338889        -9.2216
  24   2.0000      -0.335414        -9.1271
  25   2.0000      -0.323808        -8.8113
  26   2.0000      -0.304232        -8.2786
  27   2.0000      -0.293034        -7.9739
  28   2.0000      -0.289084        -7.8664
  29   2.0000      -0.284365        -7.7380
  30   2.0000      -0.257137        -6.9970
  31   2.0000      -0.217480        -5.9179
  32   0.0000      -0.019725        -0.5368
  33   0.0000       0.039224         1.0673
  34   0.0000       0.056179         1.5287
  35   0.0000       0.063349         1.7238
  36   0.0000       0.074136         2.0173

MULLIKEN ATOMIC CHARGES
-----------------------
   0 C :   -0.255632
   1 C :   -0.210975
   2 C :   -0.200382
   3 C :   -0.090663
   4 C :    0.080133
   5 O :   -0.212054
   6 O :   -0.237987
   7 C :   -0.115471
   8 H :    0.102714
   9 H :    0.096687
  10 H :    0.101374
  11 H :    0.084807
  12 H :    0.102015
  13 H :    0.087583
  14 H :    0.103207
  15 H :    0.090643
  16 H :    0.110368
  17 H :    0.121268
  18 H :    0.118803
  19 H :    0.123563
Sum of atomic charges:   -0.0000000

LOEWDIN ATOMIC CHARGES
----------------------
   0 C :   -0.338740
   1 C :   -0.236691
   2 C :   -0.219384
   3 C :   -0.244258
   4 C :    0.033830
   5 O :   -0.173152
   6 O :   -0.072712
   7 C :   -0.205406
   8 H :    0.119216
   9 H :    0.116647
  10 H :    0.119268
  11 H :    0.114639
  12 H :    0.117198
  13 H :    0.117045
  14 H :    0.123523
  15 H :    0.126880
  16 H :    0.141321
  17 H :    0.120473
  18 H :    0.119582
  19 H :    0.120720

  Mayer bond orders larger than 0.100000
B(  0-C ,  1-C ) :   1.1569 B(  0-C ,  8-H ) :   0.9532 B(  0-C ,  9-H ) :   0.9546
B(  0-C , 10-H ) :   0.9545 B(  1-C ,  2-C ) :   1.1338 B(  1-C , 11-H ) :   0.9259
B(  1-C , 12-H ) :   0.9190 B(  2-C ,  3-C ) :   1.1122 B(  2-C , 13-H ) :   0.9233
B(  2-C , 14-H ) :   0.9154 B(  3-C ,  4-C ) :   1.0171 B(  3-C , 15-H ) :   0.9061
B(  3-C , 16-H ) :   0.8940 B(  4-C ,  5-O ) :   2.0528 B(  4-C ,  6-O ) :   1.2155
B(  6-O ,  7-C ) :   0.9395 B(  7-C , 17-H ) :   0.9600 B(  7-C , 18-H ) :   0.9575
B(  7-C , 19-H ) :   0.9432

Dispersion correction           -0.015159431
FINAL SINGLE POINT ENERGY      -385.453136632870

DIPOLE MOMENT
-------------

Method             : SCF
Type of density    : Electron Density
Multiplicity       :   1
Irrep              :   0
Energy             :  -385.5281056429128057 Eh
Relativity type    :
Basis              : AO
                                X                 Y                 Z
Electronic contribution:      8.030946482       2.696513665      -0.684398651
Nuclear contribution   :     -7.953987768      -3.048741660       1.263479642
                        -----------------------------------------
Total Dipole Moment    :      0.076958714      -0.352227994       0.579080991
                        -----------------------------------------
Magnitude (a.u.)       :      0.682145144
Magnitude (Debye)      :      1.733875164

Rotational constants in cm-1:             0.121542             0.034328             0.031924
Rotational constants in MHz :          3643.744214          1029.116894           957.054286

                             ****ORCA TERMINATED NORMALLY****
TOTAL RUN TIME: 0 days 0 hours 0 minutes 10 seconds 753 msec
