                         Program Version 6.0.0  -   RELEASE  -
|  1> ! pbe def2-sv(p) def2/J RI DEFGRID1 loosescf d4 GCP(DFT/SV(P)) printgap
|  2> %output
|  3>     printlevel normal
|  4> end
|  5> * xyz 0 1
|  6> C -2.5748314262 -0.4749054117 1.1299594933
|  7> C -2.1070736645 -0.8280300027 -0.2767111534
|  8> C -1.3694047335 0.3418147113 -0.9386069519
|  9> C -0.0932892727 0.6739953698 -0.2074505747
| 10> O 0.1585208784 1.7557360012 0.2850820182
| 11> O 0.7316084434 -0.3614179559 -0.1712979472
| 12> C 2.0077406837 -0.225252024 0.4752606361
| 13> C 3.0726295791 -0.8744179149 -0.3914103083
| 14> H -3.2581932303 0.3706700452 1.1040999461
| 15> H -3.0861388707 -1.3194895332 1.5839586738
| 16> H -1.7289315767 -0.2042103488 1.7595344589
| 17> H -2.9692509441 -1.0871472027 -0.8919405442
| 18> H -1.4404048045 -1.6904367746 -0.2397070313
| 19> H -1.9939119412 1.2350852994 -0.9498578604
| 20> H -1.1049450523 0.0715103936 -1.9616565735
| 21> H 2.2054046164 0.8393746698 0.6348232656
| 22> H 1.9324431315 -0.7256392897 1.4450714129
| 23> H 2.8223845217 -1.9166494755 -0.566100495
| 24> H 3.143086001 -0.3650550666 -1.3485683609
| 25> H 4.0308120092 -0.8151702922 0.1142680896
| 26> *
| 27>
| 28>                          ****END OF INPUT****

CARTESIAN COORDINATES (ANGSTROEM)
---------------------------------
  C     -2.574831   -0.474905    1.129959
  C     -2.107074   -0.828030   -0.276711
  C     -1.369405    0.341815   -0.938607
  C     -0.093289    0.673995   -0.207451
  O      0.158521    1.755736    0.285082
  O      0.731608   -0.361418   -0.171298
  C      2.007741   -0.225252    0.475261
  C      3.072630   -0.874418   -0.391410
  H     -3.258193    0.370670    1.104100
  H     -3.086139   -1.319490    1.583959
  H     -1.728932   -0.204210    1.759534
  H     -2.969251   -1.087147   -0.891941
  H     -1.440405   -1.690437   -0.239707
  H     -1.993912    1.235085   -0.949858
  H     -1.104945    0.071510   -1.961657
  H      2.205405    0.839375    0.634823
  H      1.932443   -0.725639    1.445071
  H      2.822385   -1.916649   -0.566100
  H      3.143086   -0.365055   -1.348568
  H      4.030812   -0.815170    0.114268

 Total Charge           Charge          ....    0
 Multiplicity           Mult            ....    1
 Number of Electrons    NEL             ....   64
 Basis Dimension        Dim             ....  136

ORBITAL ENERGIES
----------------

  NO   OCC          E(Eh)            E(eV)
   0   2.0000     -18.797559      -511.5076
   1   2.0000     -18.728809      -509.6368
   2   2.0000     -10.004239      -272.2292
   3   2.0000      -9.945926      -270.6424
   4   2.0000      -9.895924      -269.2818
   5   2.0000      -9.893014      -269.2026
   6   2.0000      -9.889772      -269.1144
   7   2.0000      -9.877415      -268.7781
   8   2.0000      -1.003943       -27.3187
   9   2.0000      -0.906227       -24.6597
  10   2.0000      -0.730639       -19.8817
  11   2.0000      -0.697676       -18.9847
  12   2.0000      -0.636510       -17.3203
  13   2.0000      -0.584729       -15.9113
  14   2.0000      -0.535424       -14.5696
  15   2.0000      -0.504475       -13.7275
  16   2.0000      -0.454675       -12.3723
  17   2.0000      -0.427435       -11.6311
  18   2.0000      -0.418148       -11.3784
  19   2.0000      -0.403285       -10.9739
  20   2.0000      -0.390998       -10.6396
  21   2.0000      -0.370993       -10.0952
  22   2.0000      -0.358796        -9.7633
  23   2.0000      -0.353023        -9.6063
  24   2.0000      -0.342570        -9.3218
  25   2.0000      -0.326286        -8.8787
  26   2.0000      -0.310973        -8.4620
  27   2.0000      -0.299520        -8.1504
  28   2.0000      -0.298029        -8.1098
  29   2.0000      -0.289673        -7.8824
  30   2.0000      -0.253836        -6.9072
  31   2.0000      -0.212925        -5.7940
  32   0.0000      -0.018502        -0.5035
  33   0.0000       0.037601         1.0232
  34   0.0000       0.051414         1.3990
  35   0.0000       0.069963         1.9038
  36   0.0000       0.081709         2.2234

MULLIKEN ATOMIC CHARGES
-----------------------
   0 C :   -0.287828
   1 C :   -0.211646
   2 C :   -0.108090
   3 C :    0.081316
   4 O :   -0.200989
   5 O :   -0.246081
   6 C :   -0.026303
   7 C :   -0.284737
   8 H :    0.103344
   9 H :    0.105987
  10 H :    0.117835
  11 H :    0.093063
  12 H :    0.102411
  13 H :    0.097007
  14 H :    0.107002
  15 H :    0.116534
  16 H :    0.102205
  17 H :    0.113780
  18 H :    0.113611
  19 H :    0.111579
Sum of atomic charges:   -0.0000000

LOEWDIN ATOMIC CHARGES
----------------------
   0 C :   -0.342085
   1 C :   -0.230576
   2 C :   -0.242518
   3 C :    0.032381
   4 O :   -0.168960
   5 O :   -0.069433
   6 C :   -0.113271
   7 C :   -0.351107
   8 H :    0.120391
   9 H :    0.120671
  10 H :    0.120513
  11 H :    0.118377
  12 H :    0.119516
  13 H :    0.131788
  14 H :    0.137629
  15 H :    0.120417
  16 H :    0.115349
  17 H :    0.125025
  18 H :    0.126062
  19 H :    0.129833

  Mayer bond orders larger than 0.100000
B(  0-C ,  1-C ) :   1.1520 B(  0-C ,  8-H ) :   0.9536 B(  0-C ,  9-H ) :   0.9516
B(  0-C , 10-H ) :   0.9485 B(  1-C ,  2-C ) :   1.1092 B(  1-C , 11-H ) :   0.9270
B(  1-C , 12-H ) :   0.9233 B(  2-C ,  3-C ) :   1.0268 B(  2-C , 13-H ) :   0.9120
B(  2-C , 14-H ) :   0.8942 B(  3-C ,  4-O ) :   2.0747 B(  3-C ,  5-O ) :   1.1846
B(  5-O ,  6-C ) :   0.9138 B(  6-C ,  7-C ) :   1.1641 B(  6-C , 15-H ) :   0.9088
B(  6-C , 16-H ) :   0.9349 B(  7-C , 17-H ) :   0.9494 B(  7-C , 18-H ) :   0.9522
B(  7-C , 19-H ) :   0.9448

Dispersion correction           -0.015055681
FINAL SINGLE POINT ENERGY      -385.456726645419

DIPOLE MOMENT
-------------

Method             : SCF
Type of density    : Electron Density
Multiplicity       :   1
Irrep              :   0
Energy             :  -385.5317431434530704 Eh
Relativity type    :
Basis              : AO
                                X                 Y                 Z
Electronic contribution:      1.530812156       4.451254983      -0.819439592
Nuclear contribution   :     -1.344934414      -5.239773332       0.643322852
                        -----------------------------------------
Total Dipole Moment    :      0.185877742      -0.788518349      -0.176116740
                        -----------------------------------------
Magnitude (a.u.)       :      0.829052970
Magnitude (Debye)      :      2.107285181

Rotational constants in cm-1:             0.119215             0.036631             0.033539
Rotational constants in MHz :          3573.984231          1098.179734          1005.483506

                             ****ORCA TERMINATED NORMALLY****
TOTAL RUN TIME: 0 days 0 hours 0 minutes 10 seconds 800 msec
