                         Program Version 6.0.0  -   RELEASE  -
|  1> ! r2scan-3c def2/J RI DEFGRID2 scfconv6 printgap
|  2> %output
|  3>     printlevel normal
|  4> end
|  5> * xyz 0 1
|  6> C -3.6353063067 0.1908781875 1.8804555149
|  7> C -3.0570156048 0.6004248031 0.5260444892
|  8> H -3.1136975949 1.6839504429 0.3964125541
|  9> C -1.6117699829 0.1673011518 0.383497007
| 10> C -1.2882317388 -1.2051915533 0.3955473198
| 11> C 0.0070364543 -1.6201914953 0.284746642
| 12> C 1.0586687671 -0.6859176247 0.1559329116
| 13> C 2.4012176509 -1.079764116 0.0430799083
| 14> C 3.4076346146 -0.1471113467 -0.0857387752
| 15> C 3.087582684 1.2251363655 -0.1049438576
| 16> C 1.7852815041 1.6279164133 0.0037052994
| 17> C 0.737208829 0.6968920899 0.1362053023
| 18> C -0.6113604704 1.092611049 0.2478754054
| 19> O 4.6770339537 -0.6392587032 -0.1885202294
| 20> C 5.7558624944 0.2669265582 -0.3222784073
| 21> C -3.8144252783 -0.0408414108 -0.6159149761
| 22> O -4.3349897337 -1.1344706926 -0.5837378236
| 23> O -3.8156328692 0.7201552593 -1.6991650955
| 24> H -2.9982320531 0.5599108699 2.6789540755
| 25> H -4.6342921485 0.6017062074 2.0022639276
| 26> H -3.6999150687 -0.8916287652 1.9492385177
| 27> H -2.0857406315 -1.9288566384 0.4798402517
| 28> H 0.2468138678 -2.673060386 0.2922976323
| 29> H 2.660136119 -2.1272636934 0.056361869
| 30> H 3.8656648174 1.9643708746 -0.205177914
| 31> H 1.5464238662 2.6808630656 -0.0115770943
| 32> H -0.8420843026 2.1478650654 0.2287086058
| 33> H 5.8302756658 0.9258371609 0.5466528748
| 34> H 5.6633545611 0.8614855641 -1.2348496702
| 35> H 6.6445862555 -0.3572672826 -0.3830484962
| 36> H -4.2611040329 0.2982383474 -2.4598217843
| 37> *
| 38>
| 39>                          ****END OF INPUT****

CARTESIAN COORDINATES (ANGSTROEM)
---------------------------------
  C     -3.635306    0.190878    1.880456
  C     -3.057016    0.600425    0.526044
  H     -3.113698    1.683950    0.396413
  C     -1.611770    0.167301    0.383497
  C     -1.288232   -1.205192    0.395547
  C      0.007036   -1.620191    0.284747
  C      1.058669   -0.685918    0.155933
  C      2.401218   -1.079764    0.043080
  C      3.407635   -0.147111   -0.085739
  C      3.087583    1.225136   -0.104944
  C      1.785282    1.627916    0.003705
  C      0.737209    0.696892    0.136205
  C     -0.611360    1.092611    0.247875
  O      4.677034   -0.639259   -0.188520
  C      5.755862    0.266927   -0.322278
  C     -3.814425   -0.040841   -0.615915
  O     -4.334990   -1.134471   -0.583738
  O     -3.815633    0.720155   -1.699165
  H     -2.998232    0.559911    2.678954
  H     -4.634292    0.601706    2.002264
  H     -3.699915   -0.891629    1.949239
  H     -2.085741   -1.928857    0.479840
  H      0.246814   -2.673060    0.292298
  H      2.660136   -2.127264    0.056362
  H      3.865665    1.964371   -0.205178
  H      1.546424    2.680863   -0.011577
  H     -0.842084    2.147865    0.228709
  H      5.830276    0.925837    0.546653
  H      5.663355    0.861486   -1.234850
  H      6.644586   -0.357267   -0.383048
  H     -4.261104    0.298238   -2.459822

 Total Charge           Charge          ....    0
 Multiplicity           Mult            ....    1
 Number of Electrons    NEL             ....  122
 Basis Dimension        Dim             ....  408

ORBITAL ENERGIES
----------------

  NO   OCC          E(Eh)            E(eV)
   0   2.0000     -19.004495      -517.1386
   1   2.0000     -18.988147      -516.6938
   2   2.0000     -18.934926      -515.2455
   3   2.0000     -10.161489      -276.5082
   4   2.0000     -10.098437      -274.7924
   5   2.0000     -10.090391      -274.5735
   6   2.0000     -10.058733      -273.7120
   7   2.0000     -10.047498      -273.4063
   8   2.0000     -10.045918      -273.3633
   9   2.0000     -10.042787      -273.2781
  10   2.0000     -10.042354      -273.2664
  11   2.0000     -10.041247      -273.2362
  12   2.0000     -10.036312      -273.1019
  13   2.0000     -10.034496      -273.0525
  14   2.0000     -10.033176      -273.0166
  15   2.0000     -10.029916      -272.9279
  16   2.0000     -10.025941      -272.8197
  17   2.0000      -1.078614       -29.3506
  18   2.0000      -1.035444       -28.1759
  19   2.0000      -0.980632       -26.6843
  20   2.0000      -0.849239       -23.1090
  21   2.0000      -0.808144       -21.9907
  22   2.0000      -0.765857       -20.8400
  23   2.0000      -0.746341       -20.3090
  24   2.0000      -0.708267       -19.2729
  25   2.0000      -0.703364       -19.1395
  26   2.0000      -0.661371       -17.9968
  27   2.0000      -0.646990       -17.6055
  28   2.0000      -0.603657       -16.4263
  29   2.0000      -0.584494       -15.9049
  30   2.0000      -0.572312       -15.5734
  31   2.0000      -0.548651       -14.9296
  32   2.0000      -0.506395       -13.7797
  33   2.0000      -0.490957       -13.3596
  34   2.0000      -0.482282       -13.1236
  35   2.0000      -0.460937       -12.5427
  36   2.0000      -0.443904       -12.0792
  37   2.0000      -0.441484       -12.0134
  38   2.0000      -0.438778       -11.9398
  39   2.0000      -0.434932       -11.8351
  40   2.0000      -0.416304       -11.3282
  41   2.0000      -0.412871       -11.2348
  42   2.0000      -0.396003       -10.7758
  43   2.0000      -0.388906       -10.5827
  44   2.0000      -0.379529       -10.3275
  45   2.0000      -0.374989       -10.2040
  46   2.0000      -0.371359       -10.1052
  47   2.0000      -0.360125        -9.7995
  48   2.0000      -0.359264        -9.7761
  49   2.0000      -0.344197        -9.3661
  50   2.0000      -0.329639        -8.9699
  51   2.0000      -0.326420        -8.8823
  52   2.0000      -0.314580        -8.5602
  53   2.0000      -0.307586        -8.3699
  54   2.0000      -0.295611        -8.0440
  55   2.0000      -0.292471        -7.9585
  56   2.0000      -0.283496        -7.7143
  57   2.0000      -0.260998        -7.1021
  58   2.0000      -0.240578        -6.5465
  59   2.0000      -0.221920        -6.0388
  60   2.0000      -0.189648        -5.1606
  61   0.0000      -0.068058        -1.8519
  62   0.0000      -0.035929        -0.9777
  63   0.0000      -0.014230        -0.3872
  64   0.0000      -0.000861        -0.0234
  65   0.0000       0.055684         1.5152

MULLIKEN ATOMIC CHARGES
-----------------------
   0 C :   -0.490856
   1 C :   -0.072378
   2 H :    0.151563
   3 C :    0.133409
   4 C :   -0.212887
   5 C :   -0.295648
   6 C :    0.264729
   7 C :   -0.403798
   8 C :    0.341259
   9 C :   -0.284140
  10 C :   -0.275746
  11 C :    0.165985
  12 C :   -0.276277
  13 O :   -0.180798
  14 C :   -0.333411
  15 C :    0.334906
  16 O :   -0.406930
  17 O :   -0.333933
  18 H :    0.157662
  19 H :    0.149078
  20 H :    0.178399
  21 H :    0.174440
  22 H :    0.141692
  23 H :    0.154831
  24 H :    0.146946
  25 H :    0.141960
  26 H :    0.140452
  27 H :    0.152881
  28 H :    0.152876
  29 H :    0.155994
  30 H :    0.327738
Sum of atomic charges:    0.0000000

LOEWDIN ATOMIC CHARGES
----------------------
   0 C :   -0.374001
   1 C :   -0.147745
   2 H :    0.185718
   3 C :   -0.076371
   4 C :   -0.138393
   5 C :   -0.139649
   6 C :   -0.048475
   7 C :   -0.119139
   8 C :    0.190113
   9 C :   -0.160582
  10 C :   -0.132346
  11 C :   -0.065648
  12 C :   -0.130205
  13 O :   -0.682505
  14 C :   -0.055871
  15 C :    0.351375
  16 O :   -0.425723
  17 O :   -0.393865
  18 H :    0.160736
  19 H :    0.159161
  20 H :    0.171480
  21 H :    0.185934
  22 H :    0.171820
  23 H :    0.184278
  24 H :    0.175918
  25 H :    0.171344
  26 H :    0.172731
  27 H :    0.164232
  28 H :    0.164238
  29 H :    0.181068
  30 H :    0.300372

  Mayer bond orders larger than 0.100000
B(  0-C ,  1-C ) :   0.9350 B(  0-C , 18-H ) :   0.9751 B(  0-C , 19-H ) :   0.9712
B(  0-C , 20-H ) :   0.9634 B(  1-C ,  2-H ) :   0.9756 B(  1-C ,  3-C ) :   0.8121
B(  1-C , 15-C ) :   0.9441 B(  3-C ,  4-C ) :   1.2571 B(  3-C , 12-C ) :   1.4902
B(  4-C ,  5-C ) :   1.5073 B(  4-C , 21-H ) :   0.9303 B(  5-C ,  6-C ) :   1.1636
B(  5-C , 22-H ) :   0.9657 B(  6-C ,  7-C ) :   1.1482 B(  6-C , 11-C ) :   1.4716
B(  7-C ,  8-C ) :   1.4988 B(  7-C , 23-H ) :   0.9445 B(  8-C ,  9-C ) :   1.2431
B(  8-C , 13-O ) :   1.0524 B(  9-C , 10-C ) :   1.4711 B(  9-C , 24-H ) :   0.9176
B( 10-C , 11-C ) :   1.2326 B( 10-C , 25-H ) :   0.9519 B( 11-C , 12-C ) :   1.2173
B( 12-C , 26-H ) :   0.9397 B( 13-O , 14-C ) :   0.8523 B( 14-C , 27-H ) :   0.9641
B( 14-C , 28-H ) :   0.9640 B( 14-C , 29-H ) :   0.9678 B( 15-C , 16-O ) :   1.9165
B( 15-C , 17-O ) :   1.0602 B( 17-O , 30-H ) :   0.8604

Dispersion correction           -0.013022457
FINAL SINGLE POINT ENERGY      -767.446973422269

DIPOLE MOMENT
-------------

Method             : SCF
Type of density    : Electron Density
Multiplicity       :   1
Irrep              :   0
Energy             :  -767.4475795343596474 Eh
Relativity type    :
Basis              : AO
                                X                 Y                 Z
Electronic contribution:     -3.677411586      -2.493543678      -4.234115431
Nuclear contribution   :      4.472585237       3.498923181       4.031540493
                        -----------------------------------------
Total Dipole Moment    :      0.795173651       1.005379502      -0.202574937
                        -----------------------------------------
Magnitude (a.u.)       :      1.297738681
Magnitude (Debye)      :      3.298589583

Rotational constants in cm-1:             0.048031             0.006714             0.006492
Rotational constants in MHz :          1439.942868           201.285032           194.614591

                             ****ORCA TERMINATED NORMALLY****
TOTAL RUN TIME: 0 days 0 hours 1 minutes 26 seconds 774 msec
