                         Program Version 6.0.0  -   RELEASE  -
|  1> ! r2scan-3c def2/J RI DEFGRID2 scfconv6 printgap
|  2> %output
|  3>     printlevel normal
|  4> end
|  5> %cpcm
|  6>     smd true
|  7>     smdsolvent "water"
|  8> end
|  9> * xyz 0 1
| 10> C -3.6353063067 0.1908781875 1.8804555149
| 11> C -3.0570156048 0.6004248031 0.5260444892
| 12> H -3.1136975949 1.6839504429 0.3964125541
| 13> C -1.6117699829 0.1673011518 0.383497007
| 14> C -1.2882317388 -1.2051915533 0.3955473198
| 15> C 0.0070364543 -1.6201914953 0.284746642
| 16> C 1.0586687671 -0.6859176247 0.1559329116
| 17> C 2.4012176509 -1.079764116 0.0430799083
| 18> C 3.4076346146 -0.1471113467 -0.0857387752
| 19> C 3.087582684 1.2251363655 -0.1049438576
| 20> C 1.7852815041 1.6279164133 0.0037052994
| 21> C 0.737208829 0.6968920899 0.1362053023
| 22> C -0.6113604704 1.092611049 0.2478754054
| 23> O 4.6770339537 -0.6392587032 -0.1885202294
| 24> C 5.7558624944 0.2669265582 -0.3222784073
| 25> C -3.8144252783 -0.0408414108 -0.6159149761
| 26> O -4.3349897337 -1.1344706926 -0.5837378236
| 27> O -3.8156328692 0.7201552593 -1.6991650955
| 28> H -2.9982320531 0.5599108699 2.6789540755
| 29> H -4.6342921485 0.6017062074 2.0022639276
| 30> H -3.6999150687 -0.8916287652 1.9492385177
| 31> H -2.0857406315 -1.9288566384 0.4798402517
| 32> H 0.2468138678 -2.673060386 0.2922976323
| 33> H 2.660136119 -2.1272636934 0.056361869
| 34> H 3.8656648174 1.9643708746 -0.205177914
| 35> H 1.5464238662 2.6808630656 -0.0115770943
| 36> H -0.8420843026 2.1478650654 0.2287086058
| 37> H 5.8302756658 0.9258371609 0.5466528748
| 38> H 5.6633545611 0.8614855641 -1.2348496702
| 39> H 6.6445862555 -0.3572672826 -0.3830484962
| 40> H -4.2611040329 0.2982383474 -2.4598217843
| 41> *
| 42>
| 43>                          ****END OF INPUT****

CARTESIAN COORDINATES (ANGSTROEM)
---------------------------------
  C     -3.635306    0.190878    1.880456
  C     -3.057016    0.600425    0.526044
  H     -3.113698    1.683950    0.396413
  C     -1.611770    0.167301    0.383497
  C     -1.288232   -1.205192    0.395547
  C      0.007036   -1.620191    0.284747
  C      1.058669   -0.685918    0.155933
  C      2.401218   -1.079764    0.043080
  C      3.407635   -0.147111   -0.085739
  C      3.087583    1.225136   -0.104944
  C      1.785282    1.627916    0.003705
  C      0.737209    0.696892    0.136205
  C     -0.611360    1.092611    0.247875
  O      4.677034   -0.639259   -0.188520
  C      5.755862    0.266927   -0.322278
  C     -3.814425   -0.040841   -0.615915
  O     -4.334990   -1.134471   -0.583738
  O     -3.815633    0.720155   -1.699165
  H     -2.998232    0.559911    2.678954
  H     -4.634292    0.601706    2.002264
  H     -3.699915   -0.891629    1.949239
  H     -2.085741   -1.928857    0.479840
  H      0.246814   -2.673060    0.292298
  H      2.660136   -2.127264    0.056362
  H      3.865665    1.964371   -0.205178
  H      1.546424    2.680863   -0.011577
  H     -0.842084    2.147865    0.228709
  H      5.830276    0.925837    0.546653
  H      5.663355    0.861486   -1.234850
  H      6.644586   -0.357267   -0.383048
  H     -4.261104    0.298238   -2.459822

 Total Charge           Charge          ....    0
 Multiplicity           Mult            ....    1
 Number of Electrons    NEL             ....  122
 Basis Dimension        Dim             ....  408

ORBITAL ENERGIES
----------------

  NO   OCC          E(Eh)            E(eV)
   0   2.0000     -19.003280      -517.1055
   1   2.0000     -18.988705      -516.7089
   2   2.0000     -18.947468      -515.5868
   3   2.0000     -10.169649      -276.7302
   4   2.0000     -10.099484      -274.8209
   5   2.0000     -10.073244      -274.1069
   6   2.0000     -10.054931      -273.6086
   7   2.0000     -10.048661      -273.4380
   8   2.0000     -10.048542      -273.4347
   9   2.0000     -10.044132      -273.3147
  10   2.0000     -10.039940      -273.2006
  11   2.0000     -10.038051      -273.1493
  12   2.0000     -10.035547      -273.0811
  13   2.0000     -10.035256      -273.0732
  14   2.0000     -10.034940      -273.0646
  15   2.0000     -10.030920      -272.9552
  16   2.0000     -10.020631      -272.6752
  17   2.0000      -1.081105       -29.4184
  18   2.0000      -1.035085       -28.1661
  19   2.0000      -0.989657       -26.9299
  20   2.0000      -0.851329       -23.1659
  21   2.0000      -0.808457       -21.9992
  22   2.0000      -0.765146       -20.8207
  23   2.0000      -0.746273       -20.3071
  24   2.0000      -0.707307       -19.2468
  25   2.0000      -0.701235       -19.0816
  26   2.0000      -0.655504       -17.8372
  27   2.0000      -0.643006       -17.4971
  28   2.0000      -0.602939       -16.4068
  29   2.0000      -0.581537       -15.8244
  30   2.0000      -0.571168       -15.5423
  31   2.0000      -0.545370       -14.8403
  32   2.0000      -0.501518       -13.6470
  33   2.0000      -0.490018       -13.3341
  34   2.0000      -0.481823       -13.1111
  35   2.0000      -0.465836       -12.6761
  36   2.0000      -0.449819       -12.2402
  37   2.0000      -0.438081       -11.9208
  38   2.0000      -0.434532       -11.8242
  39   2.0000      -0.433150       -11.7866
  40   2.0000      -0.413205       -11.2439
  41   2.0000      -0.411958       -11.2099
  42   2.0000      -0.391881       -10.6636
  43   2.0000      -0.385357       -10.4861
  44   2.0000      -0.379495       -10.3266
  45   2.0000      -0.375900       -10.2288
  46   2.0000      -0.371486       -10.1086
  47   2.0000      -0.358739        -9.7618
  48   2.0000      -0.354772        -9.6538
  49   2.0000      -0.342262        -9.3134
  50   2.0000      -0.326646        -8.8885
  51   2.0000      -0.324912        -8.8413
  52   2.0000      -0.313924        -8.5423
  53   2.0000      -0.305104        -8.3023
  54   2.0000      -0.302125        -8.2212
  55   2.0000      -0.292520        -7.9599
  56   2.0000      -0.285388        -7.7658
  57   2.0000      -0.265118        -7.2142
  58   2.0000      -0.251666        -6.8482
  59   2.0000      -0.224740        -6.1155
  60   2.0000      -0.192639        -5.2420
  61   0.0000      -0.070365        -1.9147
  62   0.0000      -0.040023        -1.0891
  63   0.0000      -0.019171        -0.5217
  64   0.0000      -0.004092        -0.1113
  65   0.0000       0.065396         1.7795

MULLIKEN ATOMIC CHARGES
-----------------------
   0 C :   -0.546480
   1 C :   -0.024129
   2 H :    0.182315
   3 C :    0.094702
   4 C :   -0.230586
   5 C :   -0.326900
   6 C :    0.214280
   7 C :   -0.430773
   8 C :    0.336634
   9 C :   -0.277397
  10 C :   -0.304708
  11 C :    0.126136
  12 C :   -0.276468
  13 O :   -0.222963
  14 C :   -0.341391
  15 C :    0.353928
  16 O :   -0.481756
  17 O :   -0.360526
  18 H :    0.174225
  19 H :    0.171481
  20 H :    0.180438
  21 H :    0.190583
  22 H :    0.174839
  23 H :    0.183892
  24 H :    0.185690
  25 H :    0.178492
  26 H :    0.179245
  27 H :    0.172480
  28 H :    0.172564
  29 H :    0.173799
  30 H :    0.378355
Sum of atomic charges:    0.0000000

LOEWDIN ATOMIC CHARGES
----------------------
   0 C :   -0.379393
   1 C :   -0.143496
   2 H :    0.198097
   3 C :   -0.083596
   4 C :   -0.149874
   5 C :   -0.148824
   6 C :   -0.063207
   7 C :   -0.134059
   8 C :    0.181210
   9 C :   -0.155884
  10 C :   -0.135471
  11 C :   -0.079570
  12 C :   -0.131956
  13 O :   -0.707729
  14 C :   -0.051320
  15 C :    0.361221
  16 O :   -0.480837
  17 O :   -0.385928
  18 H :    0.166441
  19 H :    0.165800
  20 H :    0.169466
  21 H :    0.189882
  22 H :    0.183444
  23 H :    0.193307
  24 H :    0.191550
  25 H :    0.185335
  26 H :    0.187450
  27 H :    0.174364
  28 H :    0.174401
  29 H :    0.187700
  30 H :    0.321477

  Mayer bond orders larger than 0.100000
B(  0-C ,  1-C ) :   0.9054 B(  0-C , 18-H ) :   0.9704 B(  0-C , 19-H ) :   0.9691
B(  0-C , 20-H ) :   0.9654 B(  1-C ,  2-H ) :   0.9665 B(  1-C ,  3-C ) :   0.8109
B(  1-C , 15-C ) :   0.9437 B(  3-C ,  4-C ) :   1.2150 B(  3-C , 12-C ) :   1.4887
B(  4-C ,  5-C ) :   1.4865 B(  4-C , 21-H ) :   0.9375 B(  5-C ,  6-C ) :   1.1642
B(  5-C , 22-H ) :   0.9761 B(  6-C ,  7-C ) :   1.1818 B(  6-C , 11-C ) :   1.3769
B(  7-C ,  8-C ) :   1.4414 B(  7-C , 23-H ) :   0.9504 B(  8-C ,  9-C ) :   1.2268
B(  8-C , 13-O ) :   1.0368 B(  9-C , 10-C ) :   1.4452 B(  9-C , 24-H ) :   0.9294
B( 10-C , 11-C ) :   1.2278 B( 10-C , 25-H ) :   0.9691 B( 11-C , 12-C ) :   1.2219
B( 12-C , 26-H ) :   0.9516 B( 13-O , 14-C ) :   0.8439 B( 14-C , 27-H ) :   0.9562
B( 14-C , 28-H ) :   0.9560 B( 14-C , 29-H ) :   0.9602 B( 15-C , 16-O ) :   1.8579
B( 15-C , 17-O ) :   1.0914 B( 17-O , 30-H ) :   0.8358

Dispersion correction           -0.013022457
FINAL SINGLE POINT ENERGY      -767.461803465126

DIPOLE MOMENT
-------------

Method             : SCF
Type of density    : Electron Density
Multiplicity       :   1
Irrep              :   0
Energy             :  -767.4624095772164765 Eh
Relativity type    :
Basis              : AO
                                X                 Y                 Z
Electronic contribution:     -3.463289321      -1.857629083      -4.315117169
Nuclear contribution   :      4.472585237       3.498923181       4.031540493
                        -----------------------------------------
Total Dipole Moment    :      1.009295916       1.641294098      -0.283576675
                        -----------------------------------------
Magnitude (a.u.)       :      1.947547250
Magnitude (Debye)      :      4.950271706

Rotational constants in cm-1:             0.048031             0.006714             0.006492
Rotational constants in MHz :          1439.942868           201.285032           194.614591

                             ****ORCA TERMINATED NORMALLY****
TOTAL RUN TIME: 0 days 0 hours 1 minutes 46 seconds 428 msec
