                         Program Version 6.0.0  -   RELEASE  -
|  1> ! r2scan-3c def2/J RI DEFGRID2 scfconv6 printgap
|  2> %output
|  3>     printlevel normal
|  4> end
|  5> * xyz 0 1
|  6> C -3.3337535978 -0.9015902277 0.4518503878
|  7> C -2.8169061762 0.4682727071 0.0259158464
|  8> C -1.4117904485 0.4170676496 -0.5723239937
|  9> C -0.3500185193 -0.0101346735 0.4406133119
| 10> C 1.0454375069 0.216909098 -0.0793131646
| 11> O 1.3656012168 1.0703206148 -0.8795683376
| 12> O 1.9029108124 -0.6357228056 0.4723205743
| 13> C 3.2911588664 -0.5480699528 0.1331702148
| 14> H -3.2939193731 -1.5978671725 -0.3825765362
| 15> H -2.74295573 -1.3059600198 1.2688889133
| 16> H -4.365654671 -0.8255495985 0.7852664721
| 17> H -3.4924141408 0.8849601954 -0.723572075
| 18> H -2.8199787359 1.1423100227 0.884705682
| 19> H -1.1415697591 1.4049664757 -0.9516281035
| 20> H -1.4001016913 -0.2727547068 -1.4185419974
| 21> H -0.4442103973 -1.0586430751 0.7187370893
| 22> H -0.4487192512 0.5920103489 1.3479371911
| 23> H 3.5635297311 -1.4505438757 -0.4116520726
| 24> H 3.8486668781 -0.4848901312 1.0651201084
| 25> H 3.466141169 0.3339752317 -0.4837367652
| 26> *
| 27>
| 28>                          ****END OF INPUT****

CARTESIAN COORDINATES (ANGSTROEM)
---------------------------------
  C     -3.333754   -0.901590    0.451850
  C     -2.816906    0.468273    0.025916
  C     -1.411790    0.417068   -0.572324
  C     -0.350019   -0.010135    0.440613
  C      1.045438    0.216909   -0.079313
  O      1.365601    1.070321   -0.879568
  O      1.902911   -0.635723    0.472321
  C      3.291159   -0.548070    0.133170
  H     -3.293919   -1.597867   -0.382577
  H     -2.742956   -1.305960    1.268889
  H     -4.365655   -0.825550    0.785266
  H     -3.492414    0.884960   -0.723572
  H     -2.819979    1.142310    0.884706
  H     -1.141570    1.404966   -0.951628
  H     -1.400102   -0.272755   -1.418542
  H     -0.444210   -1.058643    0.718737
  H     -0.448719    0.592010    1.347937
  H      3.563530   -1.450544   -0.411652
  H      3.848667   -0.484890    1.065120
  H      3.466141    0.333975   -0.483737

 Total Charge           Charge          ....    0
 Multiplicity           Mult            ....    1
 Number of Electrons    NEL             ....   64
 Basis Dimension        Dim             ....  222

ORBITAL ENERGIES
----------------

  NO   OCC          E(Eh)            E(eV)
   0   2.0000     -18.998871      -516.9856
   1   2.0000     -18.929639      -515.1017
   2   2.0000     -10.153975      -276.3037
   3   2.0000     -10.084795      -274.4212
   4   2.0000     -10.042225      -273.2628
   5   2.0000     -10.027875      -272.8724
   6   2.0000     -10.027675      -272.8669
   7   2.0000     -10.018099      -272.6063
   8   2.0000      -1.072134       -29.1743
   9   2.0000      -0.977312       -26.5940
  10   2.0000      -0.776781       -21.1373
  11   2.0000      -0.727959       -19.8088
  12   2.0000      -0.684943       -18.6383
  13   2.0000      -0.622108       -16.9284
  14   2.0000      -0.550258       -14.9733
  15   2.0000      -0.525587       -14.3020
  16   2.0000      -0.473412       -12.8822
  17   2.0000      -0.459101       -12.4928
  18   2.0000      -0.443985       -12.0814
  19   2.0000      -0.427368       -11.6293
  20   2.0000      -0.413003       -11.2384
  21   2.0000      -0.401844       -10.9347
  22   2.0000      -0.373184       -10.1548
  23   2.0000      -0.363387        -9.8883
  24   2.0000      -0.358195        -9.7470
  25   2.0000      -0.330598        -8.9960
  26   2.0000      -0.319363        -8.6903
  27   2.0000      -0.301242        -8.1972
  28   2.0000      -0.299254        -8.1431
  29   2.0000      -0.295872        -8.0511
  30   2.0000      -0.272546        -7.4164
  31   2.0000      -0.239600        -6.5198
  32   0.0000      -0.014166        -0.3855
  33   0.0000       0.069405         1.8886
  34   0.0000       0.089272         2.4292
  35   0.0000       0.099976         2.7205
  36   0.0000       0.119092         3.2406

MULLIKEN ATOMIC CHARGES
-----------------------
   0 C :   -0.489512
   1 C :   -0.226391
   2 C :   -0.256953
   3 C :   -0.346547
   4 C :    0.400404
   5 O :   -0.440176
   6 O :   -0.195094
   7 C :   -0.307848
   8 H :    0.145931
   9 H :    0.147868
  10 H :    0.147595
  11 H :    0.146205
  12 H :    0.134350
  13 H :    0.173564
  14 H :    0.140103
  15 H :    0.169398
  16 H :    0.171695
  17 H :    0.148237
  18 H :    0.147330
  19 H :    0.189841
Sum of atomic charges:    0.0000000

LOEWDIN ATOMIC CHARGES
----------------------
   0 C :   -0.425849
   1 C :   -0.315307
   2 C :   -0.289259
   3 C :   -0.229038
   4 C :    0.363466
   5 O :   -0.444600
   6 O :   -0.603702
   7 C :   -0.046893
   8 H :    0.150737
   9 H :    0.148371
  10 H :    0.151121
  11 H :    0.153837
  12 H :    0.151234
  13 H :    0.174319
  14 H :    0.158745
  15 H :    0.180146
  16 H :    0.183375
  17 H :    0.172849
  18 H :    0.173522
  19 H :    0.192928

  Mayer bond orders larger than 0.100000
B(  0-C ,  1-C ) :   0.8829 B(  0-C ,  8-H ) :   0.9816 B(  0-C ,  9-H ) :   0.9822
B(  0-C , 10-H ) :   0.9692 B(  1-C ,  2-C ) :   0.8810 B(  1-C , 11-H ) :   0.9736
B(  1-C , 12-H ) :   0.9908 B(  2-C ,  3-C ) :   0.9289 B(  2-C , 13-H ) :   0.9633
B(  2-C , 14-H ) :   0.9702 B(  3-C ,  4-C ) :   1.0105 B(  3-C , 15-H ) :   0.9575
B(  3-C , 16-H ) :   0.9427 B(  4-C ,  5-O ) :   1.8357 B(  4-C ,  6-O ) :   1.0705
B(  6-O ,  7-C ) :   0.8381 B(  7-C , 17-H ) :   0.9635 B(  7-C , 18-H ) :   0.9657
B(  7-C , 19-H ) :   0.9691

Dispersion correction           -0.004979936
FINAL SINGLE POINT ENERGY      -386.228899328739

DIPOLE MOMENT
-------------

Method             : SCF
Type of density    : Electron Density
Multiplicity       :   1
Irrep              :   0
Energy             :  -386.2361005618316199 Eh
Relativity type    :
Basis              : AO
                                X                 Y                 Z
Electronic contribution:      8.678625620       1.944762751      -1.124505542
Nuclear contribution   :     -8.649451895      -2.468426615       1.587857611
                        -----------------------------------------
Total Dipole Moment    :      0.029173725      -0.523663864       0.463352069
                        -----------------------------------------
Magnitude (a.u.)       :      0.699835758
Magnitude (Debye)      :      1.778841131

Rotational constants in cm-1:             0.183836             0.028087             0.025319
Rotational constants in MHz :          5511.250577           842.018800           759.054200

                             ****ORCA TERMINATED NORMALLY****
TOTAL RUN TIME: 0 days 0 hours 0 minutes 25 seconds 398 msec
