                         Program Version 6.0.0  -   RELEASE  -
|  1> ! r2scan-3c def2/J RI DEFGRID2 scfconv6 printgap
|  2> %output
|  3>     printlevel normal
|  4> end
|  5> %cpcm
|  6>     smd true
|  7>     smdsolvent "water"
|  8> end
|  9> * xyz 0 1
| 10> C -3.3337535978 -0.9015902277 0.4518503878
| 11> C -2.8169061762 0.4682727071 0.0259158464
| 12> C -1.4117904485 0.4170676496 -0.5723239937
| 13> C -0.3500185193 -0.0101346735 0.4406133119
| 14> C 1.0454375069 0.216909098 -0.0793131646
| 15> O 1.3656012168 1.0703206148 -0.8795683376
| 16> O 1.9029108124 -0.6357228056 0.4723205743
| 17> C 3.2911588664 -0.5480699528 0.1331702148
| 18> H -3.2939193731 -1.5978671725 -0.3825765362
| 19> H -2.74295573 -1.3059600198 1.2688889133
| 20> H -4.365654671 -0.8255495985 0.7852664721
| 21> H -3.4924141408 0.8849601954 -0.723572075
| 22> H -2.8199787359 1.1423100227 0.884705682
| 23> H -1.1415697591 1.4049664757 -0.9516281035
| 24> H -1.4001016913 -0.2727547068 -1.4185419974
| 25> H -0.4442103973 -1.0586430751 0.7187370893
| 26> H -0.4487192512 0.5920103489 1.3479371911
| 27> H 3.5635297311 -1.4505438757 -0.4116520726
| 28> H 3.8486668781 -0.4848901312 1.0651201084
| 29> H 3.466141169 0.3339752317 -0.4837367652
| 30> *
| 31>
| 32>                          ****END OF INPUT****

CARTESIAN COORDINATES (ANGSTROEM)
---------------------------------
  C     -3.333754   -0.901590    0.451850
  C     -2.816906    0.468273    0.025916
  C     -1.411790    0.417068   -0.572324
  C     -0.350019   -0.010135    0.440613
  C      1.045438    0.216909   -0.079313
  O      1.365601    1.070321   -0.879568
  O      1.902911   -0.635723    0.472321
  C      3.291159   -0.548070    0.133170
  H     -3.293919   -1.597867   -0.382577
  H     -2.742956   -1.305960    1.268889
  H     -4.365655   -0.825550    0.785266
  H     -3.492414    0.884960   -0.723572
  H     -2.819979    1.142310    0.884706
  H     -1.141570    1.404966   -0.951628
  H     -1.400102   -0.272755   -1.418542
  H     -0.444210   -1.058643    0.718737
  H     -0.448719    0.592010    1.347937
  H      3.563530   -1.450544   -0.411652
  H      3.848667   -0.484890    1.065120
  H      3.466141    0.333975   -0.483737

 Total Charge           Charge          ....    0
 Multiplicity           Mult            ....    1
 Number of Electrons    NEL             ....   64
 Basis Dimension        Dim             ....  222

ORBITAL ENERGIES
----------------

  NO   OCC          E(Eh)            E(eV)
   0   2.0000     -19.003538      -517.1126
   1   2.0000     -18.943599      -515.4815
   2   2.0000     -10.162996      -276.5492
   3   2.0000     -10.074568      -274.1429
   4   2.0000     -10.035161      -273.0706
   5   2.0000     -10.022352      -272.7221
   6   2.0000     -10.018467      -272.6164
   7   2.0000     -10.007703      -272.3234
   8   2.0000      -1.078186       -29.3389
   9   2.0000      -0.989325       -26.9209
  10   2.0000      -0.770444       -20.9649
  11   2.0000      -0.722365       -19.6565
  12   2.0000      -0.677940       -18.4477
  13   2.0000      -0.614518       -16.7219
  14   2.0000      -0.543747       -14.7961
  15   2.0000      -0.522359       -14.2141
  16   2.0000      -0.473548       -12.8859
  17   2.0000      -0.459215       -12.4959
  18   2.0000      -0.450867       -12.2687
  19   2.0000      -0.423731       -11.5303
  20   2.0000      -0.406025       -11.0485
  21   2.0000      -0.395510       -10.7624
  22   2.0000      -0.369697       -10.0600
  23   2.0000      -0.360263        -9.8033
  24   2.0000      -0.350153        -9.5282
  25   2.0000      -0.325271        -8.8511
  26   2.0000      -0.319962        -8.7066
  27   2.0000      -0.294026        -8.0009
  28   2.0000      -0.292161        -7.9501
  29   2.0000      -0.288303        -7.8451
  30   2.0000      -0.278287        -7.5726
  31   2.0000      -0.254195        -6.9170
  32   0.0000      -0.020652        -0.5620
  33   0.0000       0.074603         2.0301
  34   0.0000       0.097530         2.6539
  35   0.0000       0.109328         2.9750
  36   0.0000       0.127631         3.4730

MULLIKEN ATOMIC CHARGES
-----------------------
   0 C :   -0.525221
   1 C :   -0.244608
   2 C :   -0.269539
   3 C :   -0.357221
   4 C :    0.437249
   5 O :   -0.522160
   6 O :   -0.212990
   7 C :   -0.321975
   8 H :    0.156103
   9 H :    0.160912
  10 H :    0.156964
  11 H :    0.153723
  12 H :    0.146821
  13 H :    0.159643
  14 H :    0.157588
  15 H :    0.186244
  16 H :    0.203766
  17 H :    0.175361
  18 H :    0.174096
  19 H :    0.185243
Sum of atomic charges:    0.0000000

LOEWDIN ATOMIC CHARGES
----------------------
   0 C :   -0.432678
   1 C :   -0.315209
   2 C :   -0.292113
   3 C :   -0.225902
   4 C :    0.373907
   5 O :   -0.504358
   6 O :   -0.606826
   7 C :   -0.041581
   8 H :    0.153386
   9 H :    0.152558
  10 H :    0.153008
  11 H :    0.155671
  12 H :    0.155191
  13 H :    0.168164
  14 H :    0.162568
  15 H :    0.188402
  16 H :    0.195579
  17 H :    0.183733
  18 H :    0.184893
  19 H :    0.191607

  Mayer bond orders larger than 0.100000
B(  0-C ,  1-C ) :   0.8830 B(  0-C ,  8-H ) :   0.9786 B(  0-C ,  9-H ) :   0.9782
B(  0-C , 10-H ) :   0.9680 B(  1-C ,  2-C ) :   0.8850 B(  1-C , 11-H ) :   0.9733
B(  1-C , 12-H ) :   0.9896 B(  2-C ,  3-C ) :   0.9160 B(  2-C , 13-H ) :   0.9653
B(  2-C , 14-H ) :   0.9689 B(  3-C ,  4-C ) :   1.0115 B(  3-C , 15-H ) :   0.9488
B(  3-C , 16-H ) :   0.9307 B(  4-C ,  5-O ) :   1.7771 B(  4-C ,  6-O ) :   1.0935
B(  6-O ,  7-C ) :   0.8256 B(  7-C , 17-H ) :   0.9545 B(  7-C , 18-H ) :   0.9563
B(  7-C , 19-H ) :   0.9654

Dispersion correction           -0.004979936
FINAL SINGLE POINT ENERGY      -386.232801536538

DIPOLE MOMENT
-------------

Method             : SCF
Type of density    : Electron Density
Multiplicity       :   1
Irrep              :   0
Energy             :  -386.2400027696306779 Eh
Relativity type    :
Basis              : AO
                                X                 Y                 Z
Electronic contribution:      8.675733267       1.684571409      -0.864241420
Nuclear contribution   :     -8.649451895      -2.468426615       1.587857611
                        -----------------------------------------
Total Dipole Moment    :      0.026281372      -0.783855206       0.723616191
                        -----------------------------------------
Magnitude (a.u.)       :      1.067117653
Magnitude (Debye)      :      2.712397516

Rotational constants in cm-1:             0.183836             0.028087             0.025319
Rotational constants in MHz :          5511.250577           842.018800           759.054200

                             ****ORCA TERMINATED NORMALLY****
TOTAL RUN TIME: 0 days 0 hours 0 minutes 33 seconds 129 msec
