                         Program Version 6.0.0  -   RELEASE  -
|  1> ! r2scan-3c def2/J RI DEFGRID2 scfconv6 printgap
|  2> %output
|  3>     printlevel normal
|  4> end
|  5> * xyz 0 1
|  6> C -4.6265258088 -1.1476825014 -0.0880743771
|  7> C -3.8386839157 -2.289204197 -0.1418189159
|  8> C -2.4605588598 -2.1803793531 -0.1262550802
|  9> C -1.8449582694 -0.9322507094 -0.0572693569
| 10> C -2.64091607 0.2176701208 -0.0033090001
| 11> C -4.0294255365 0.0967815041 -0.019187313
| 12> C -2.0316084958 1.5517948406 0.069554794
| 13> O -2.7190935479 2.5698491998 0.1199323987
| 14> C -0.5595522171 1.6105937059 0.0792547902
| 15> C 0.0183012771 2.8667589916 0.1438871688
| 16> C 1.4042129318 3.0069661402 0.1570160226
| 17> C 2.208146154 1.9003115349 0.106119444
| 18> C 1.6616560001 0.5949318167 0.03954097
| 19> C 0.2406843862 0.4448683502 0.0253087529
| 20> C -0.3703338105 -0.8641806923 -0.0435161918
| 21> O 0.2813125049 -1.9232158957 -0.0914365187
| 22> N 2.462821822 -0.4743441779 -0.0090943594
| 23> C 3.9027609279 -0.4503188808 -0.0042267295
| 24> C 4.4479053025 -1.8764338601 -0.061804069
| 25> O 5.8570551734 -1.7959355014 -0.0635315533
| 26> H -5.7019346031 -1.2295249269 -0.1000925961
| 27> H -4.2997676566 -3.2629053444 -0.1959091989
| 28> H -1.8300952703 -3.056241149 -0.1671700776
| 29> H -4.6173096349 1.0017570652 0.0236980829
| 30> H -0.6314673519 3.727448197 0.1831889072
| 31> H 1.8405001717 3.9920934545 0.2073967959
| 32> H 3.2788146511 2.0140729895 0.1162265889
| 33> H 1.9928535397 -1.3758592069 -0.0579825136
| 34> H 4.2837014639 0.0287560409 0.9047453543
| 35> H 4.2890710507 0.1016142119 -0.8688033066
| 36> H 4.0866116181 -2.3695634433 -0.9737835095
| 37> H 4.0925287213 -2.4403367817 0.8104055747
| 38> H 6.2317914118 -2.686060637 -0.0957772539
| 39> *
| 40>
| 41>                          ****END OF INPUT****

CARTESIAN COORDINATES (ANGSTROEM)
---------------------------------
  C     -4.626526   -1.147683   -0.088074
  C     -3.838684   -2.289204   -0.141819
  C     -2.460559   -2.180379   -0.126255
  C     -1.844958   -0.932251   -0.057269
  C     -2.640916    0.217670   -0.003309
  C     -4.029426    0.096782   -0.019187
  C     -2.031608    1.551795    0.069555
  O     -2.719094    2.569849    0.119932
  C     -0.559552    1.610594    0.079255
  C      0.018301    2.866759    0.143887
  C      1.404213    3.006966    0.157016
  C      2.208146    1.900312    0.106119
  C      1.661656    0.594932    0.039541
  C      0.240684    0.444868    0.025309
  C     -0.370334   -0.864181   -0.043516
  O      0.281313   -1.923216   -0.091437
  N      2.462822   -0.474344   -0.009094
  C      3.902761   -0.450319   -0.004227
  C      4.447905   -1.876434   -0.061804
  O      5.857055   -1.795936   -0.063532
  H     -5.701935   -1.229525   -0.100093
  H     -4.299768   -3.262905   -0.195909
  H     -1.830095   -3.056241   -0.167170
  H     -4.617310    1.001757    0.023698
  H     -0.631467    3.727448    0.183189
  H      1.840500    3.992093    0.207397
  H      3.278815    2.014073    0.116227
  H      1.992854   -1.375859   -0.057983
  H      4.283701    0.028756    0.904745
  H      4.289071    0.101614   -0.868803
  H      4.086612   -2.369563   -0.973784
  H      4.092529   -2.440337    0.810406
  H      6.231791   -2.686061   -0.095777

 Total Charge           Charge          ....    0
 Multiplicity           Mult            ....    1
 Number of Electrons    NEL             ....  140
 Basis Dimension        Dim             ....  465

ORBITAL ENERGIES
----------------

  NO   OCC          E(Eh)            E(eV)
   0   2.0000     -18.967804      -516.1402
   1   2.0000     -18.942022      -515.4386
   2   2.0000     -18.937139      -515.3058
   3   2.0000     -14.190417      -386.1409
   4   2.0000     -10.124130      -275.4916
   5   2.0000     -10.121301      -275.4146
   6   2.0000     -10.102652      -274.9071
   7   2.0000     -10.098523      -274.7948
   8   2.0000     -10.081997      -274.3451
   9   2.0000     -10.058897      -273.7165
  10   2.0000     -10.058182      -273.6970
  11   2.0000     -10.056606      -273.6542
  12   2.0000     -10.056552      -273.6527
  13   2.0000     -10.054716      -273.6027
  14   2.0000     -10.053664      -273.5741
  15   2.0000     -10.052643      -273.5463
  16   2.0000     -10.049937      -273.4727
  17   2.0000     -10.049892      -273.4715
  18   2.0000     -10.049354      -273.4568
  19   2.0000     -10.040321      -273.2110
  20   2.0000      -1.006281       -27.3823
  21   2.0000      -1.004746       -27.3405
  22   2.0000      -1.001320       -27.2473
  23   2.0000      -0.930557       -25.3217
  24   2.0000      -0.850397       -23.1405
  25   2.0000      -0.833853       -22.6903
  26   2.0000      -0.774025       -21.0623
  27   2.0000      -0.752183       -20.4679
  28   2.0000      -0.736844       -20.0505
  29   2.0000      -0.731736       -19.9116
  30   2.0000      -0.698673       -19.0119
  31   2.0000      -0.650837       -17.7102
  32   2.0000      -0.631220       -17.1764
  33   2.0000      -0.617883       -16.8135
  34   2.0000      -0.596500       -16.2316
  35   2.0000      -0.573236       -15.5985
  36   2.0000      -0.552515       -15.0347
  37   2.0000      -0.524191       -14.2640
  38   2.0000      -0.520329       -14.1589
  39   2.0000      -0.496270       -13.5042
  40   2.0000      -0.485054       -13.1990
  41   2.0000      -0.468939       -12.7605
  42   2.0000      -0.460417       -12.5286
  43   2.0000      -0.455614       -12.3979
  44   2.0000      -0.445844       -12.1320
  45   2.0000      -0.433487       -11.7958
  46   2.0000      -0.424213       -11.5434
  47   2.0000      -0.418338       -11.3836
  48   2.0000      -0.407109       -11.0780
  49   2.0000      -0.403503       -10.9799
  50   2.0000      -0.396651       -10.7934
  51   2.0000      -0.392010       -10.6671
  52   2.0000      -0.387225       -10.5369
  53   2.0000      -0.380821       -10.3627
  54   2.0000      -0.371455       -10.1078
  55   2.0000      -0.358902        -9.7662
  56   2.0000      -0.354538        -9.6475
  57   2.0000      -0.346082        -9.4174
  58   2.0000      -0.333644        -9.0789
  59   2.0000      -0.331101        -9.0097
  60   2.0000      -0.322626        -8.7791
  61   2.0000      -0.318723        -8.6729
  62   2.0000      -0.291439        -7.9304
  63   2.0000      -0.260552        -7.0900
  64   2.0000      -0.256127        -6.9696
  65   2.0000      -0.251288        -6.8379
  66   2.0000      -0.249948        -6.8014
  67   2.0000      -0.234209        -6.3731
  68   2.0000      -0.221808        -6.0357
  69   2.0000      -0.197521        -5.3748
  70   0.0000      -0.128992        -3.5100
  71   0.0000      -0.078524        -2.1367
  72   0.0000      -0.049409        -1.3445
  73   0.0000      -0.027653        -0.7525
  74   0.0000       0.024509         0.6669

MULLIKEN ATOMIC CHARGES
-----------------------
   0 C :   -0.131647
   1 C :   -0.127551
   2 C :   -0.227100
   3 C :    0.192031
   4 C :    0.139531
   5 C :   -0.215322
   6 C :    0.033187
   7 O :   -0.353624
   8 C :    0.193437
   9 C :   -0.249387
  10 C :   -0.137824
  11 C :   -0.259938
  12 C :    0.271661
  13 C :   -0.141509
  14 C :    0.013504
  15 O :   -0.445047
  16 N :   -0.061532
  17 C :   -0.228804
  18 C :   -0.186994
  19 O :   -0.426365
  20 H :    0.148953
  21 H :    0.148595
  22 H :    0.181862
  23 H :    0.181991
  24 H :    0.184736
  25 H :    0.147647
  26 H :    0.145271
  27 H :    0.320195
  28 H :    0.157510
  29 H :    0.158562
  30 H :    0.136109
  31 H :    0.136604
  32 H :    0.301259
Sum of atomic charges:   -0.0000000

LOEWDIN ATOMIC CHARGES
----------------------
   0 C :   -0.143500
   1 C :   -0.140477
   2 C :   -0.102453
   3 C :   -0.025769
   4 C :   -0.035584
   5 C :   -0.096887
   6 C :    0.269892
   7 O :   -0.479137
   8 C :   -0.023989
   9 C :   -0.123614
  10 C :   -0.125411
  11 C :   -0.135825
  12 C :    0.202117
  13 C :   -0.034588
  14 C :    0.270133
  15 O :   -0.538958
  16 N :   -0.687463
  17 C :   -0.004409
  18 C :    0.045164
  19 O :   -0.615511
  20 H :    0.170574
  21 H :    0.170393
  22 H :    0.192595
  23 H :    0.191879
  24 H :    0.193572
  25 H :    0.172245
  26 H :    0.178208
  27 H :    0.297744
  28 H :    0.181878
  29 H :    0.181989
  30 H :    0.161910
  31 H :    0.161963
  32 H :    0.271321

  Mayer bond orders larger than 0.100000
B(  0-C ,  1-C ) :   1.3223 B(  0-C ,  5-C ) :   1.3565 B(  0-C , 20-H ) :   0.9558
B(  1-C ,  2-C ) :   1.3500 B(  1-C , 21-H ) :   0.9556 B(  2-C ,  3-C ) :   1.3536
B(  2-C , 15-O ) :   0.1032 B(  2-C , 22-H ) :   0.9599 B(  3-C ,  4-C ) :   1.5223
B(  3-C , 14-C ) :   0.9209 B(  3-C , 15-O ) :  -0.2081 B(  4-C ,  5-C ) :   1.3503
B(  4-C ,  6-C ) :   0.8547 B(  4-C ,  7-O ) :  -0.2238 B(  5-C ,  7-O ) :   0.1083
B(  5-C , 23-H ) :   0.9632 B(  6-C ,  7-O ) :   2.1019 B(  6-C ,  8-C ) :   0.8642
B(  7-O ,  8-C ) :  -0.2178 B(  7-O ,  9-C ) :   0.1230 B(  8-C ,  9-C ) :   1.3969
B(  8-C , 13-C ) :   1.2768 B(  9-C , 10-C ) :   1.2418 B(  9-C , 24-H ) :   0.9659
B( 10-C , 11-C ) :   1.3667 B( 10-C , 25-H ) :   0.9666 B( 11-C , 12-C ) :   1.1269
B( 11-C , 26-H ) :   0.9528 B( 12-C , 13-C ) :   1.2669 B( 12-C , 14-C ) :  -0.1142
B( 12-C , 16-N ) :   1.3258 B( 13-C , 14-C ) :   0.9324 B( 13-C , 15-O ) :  -0.1335
B( 14-C , 15-O ) :   1.8926 B( 16-N , 17-C ) :   0.8571 B( 16-N , 27-H ) :   0.8249
B( 17-C , 18-C ) :   0.9711 B( 17-C , 28-H ) :   0.9343 B( 17-C , 29-H ) :   0.9339
B( 18-C , 19-O ) :   0.9662 B( 18-C , 30-H ) :   0.9632 B( 18-C , 31-H ) :   0.9633
B( 19-O , 32-H ) :   0.8963

Dispersion correction           -0.015418469
FINAL SINGLE POINT ENERGY      -897.784665448281

DIPOLE MOMENT
-------------

Method             : SCF
Type of density    : Electron Density
Multiplicity       :   1
Irrep              :   0
Energy             :  -897.7853121642090173 Eh
Relativity type    :
Basis              : AO
                                X                 Y                 Z
Electronic contribution:    -11.436129961       4.226858377       0.158102620
Nuclear contribution   :     12.274745490      -5.230933522      -0.201203506
                        -----------------------------------------
Total Dipole Moment    :      0.838615530      -1.004075145      -0.043100886
                        -----------------------------------------
Magnitude (a.u.)       :      1.308931087
Magnitude (Debye)      :      3.327038419

Rotational constants in cm-1:             0.020769             0.007058             0.005278
Rotational constants in MHz :           622.628590           211.589455           158.238618

                             ****ORCA TERMINATED NORMALLY****
TOTAL RUN TIME: 0 days 0 hours 2 minutes 3 seconds 372 msec
