                         Program Version 6.0.0  -   RELEASE  -
|  1> ! r2scan-3c def2/J RI DEFGRID2 scfconv6 printgap
|  2> %output
|  3>     printlevel normal
|  4> end
|  5> %cpcm
|  6>     smd true
|  7>     smdsolvent "water"
|  8> end
|  9> * xyz 0 1
| 10> C -4.6265258088 -1.1476825014 -0.0880743771
| 11> C -3.8386839157 -2.289204197 -0.1418189159
| 12> C -2.4605588598 -2.1803793531 -0.1262550802
| 13> C -1.8449582694 -0.9322507094 -0.0572693569
| 14> C -2.64091607 0.2176701208 -0.0033090001
| 15> C -4.0294255365 0.0967815041 -0.019187313
| 16> C -2.0316084958 1.5517948406 0.069554794
| 17> O -2.7190935479 2.5698491998 0.1199323987
| 18> C -0.5595522171 1.6105937059 0.0792547902
| 19> C 0.0183012771 2.8667589916 0.1438871688
| 20> C 1.4042129318 3.0069661402 0.1570160226
| 21> C 2.208146154 1.9003115349 0.106119444
| 22> C 1.6616560001 0.5949318167 0.03954097
| 23> C 0.2406843862 0.4448683502 0.0253087529
| 24> C -0.3703338105 -0.8641806923 -0.0435161918
| 25> O 0.2813125049 -1.9232158957 -0.0914365187
| 26> N 2.462821822 -0.4743441779 -0.0090943594
| 27> C 3.9027609279 -0.4503188808 -0.0042267295
| 28> C 4.4479053025 -1.8764338601 -0.061804069
| 29> O 5.8570551734 -1.7959355014 -0.0635315533
| 30> H -5.7019346031 -1.2295249269 -0.1000925961
| 31> H -4.2997676566 -3.2629053444 -0.1959091989
| 32> H -1.8300952703 -3.056241149 -0.1671700776
| 33> H -4.6173096349 1.0017570652 0.0236980829
| 34> H -0.6314673519 3.727448197 0.1831889072
| 35> H 1.8405001717 3.9920934545 0.2073967959
| 36> H 3.2788146511 2.0140729895 0.1162265889
| 37> H 1.9928535397 -1.3758592069 -0.0579825136
| 38> H 4.2837014639 0.0287560409 0.9047453543
| 39> H 4.2890710507 0.1016142119 -0.8688033066
| 40> H 4.0866116181 -2.3695634433 -0.9737835095
| 41> H 4.0925287213 -2.4403367817 0.8104055747
| 42> H 6.2317914118 -2.686060637 -0.0957772539
| 43> *
| 44>
| 45>                          ****END OF INPUT****

CARTESIAN COORDINATES (ANGSTROEM)
---------------------------------
  C     -4.626526   -1.147683   -0.088074
  C     -3.838684   -2.289204   -0.141819
  C     -2.460559   -2.180379   -0.126255
  C     -1.844958   -0.932251   -0.057269
  C     -2.640916    0.217670   -0.003309
  C     -4.029426    0.096782   -0.019187
  C     -2.031608    1.551795    0.069555
  O     -2.719094    2.569849    0.119932
  C     -0.559552    1.610594    0.079255
  C      0.018301    2.866759    0.143887
  C      1.404213    3.006966    0.157016
  C      2.208146    1.900312    0.106119
  C      1.661656    0.594932    0.039541
  C      0.240684    0.444868    0.025309
  C     -0.370334   -0.864181   -0.043516
  O      0.281313   -1.923216   -0.091437
  N      2.462822   -0.474344   -0.009094
  C      3.902761   -0.450319   -0.004227
  C      4.447905   -1.876434   -0.061804
  O      5.857055   -1.795936   -0.063532
  H     -5.701935   -1.229525   -0.100093
  H     -4.299768   -3.262905   -0.195909
  H     -1.830095   -3.056241   -0.167170
  H     -4.617310    1.001757    0.023698
  H     -0.631467    3.727448    0.183189
  H      1.840500    3.992093    0.207397
  H      3.278815    2.014073    0.116227
  H      1.992854   -1.375859   -0.057983
  H      4.283701    0.028756    0.904745
  H      4.289071    0.101614   -0.868803
  H      4.086612   -2.369563   -0.973784
  H      4.092529   -2.440337    0.810406
  H      6.231791   -2.686061   -0.095777

 Total Charge           Charge          ....    0
 Multiplicity           Mult            ....    1
 Number of Electrons    NEL             ....  140
 Basis Dimension        Dim             ....  465

ORBITAL ENERGIES
----------------

  NO   OCC          E(Eh)            E(eV)
   0   2.0000     -18.956775      -515.8401
   1   2.0000     -18.949375      -515.6387
   2   2.0000     -18.946983      -515.5736
   3   2.0000     -14.187475      -386.0608
   4   2.0000     -10.132136      -275.7094
   5   2.0000     -10.127954      -275.5956
   6   2.0000     -10.100925      -274.8601
   7   2.0000     -10.079870      -274.2872
   8   2.0000     -10.066415      -273.9211
   9   2.0000     -10.060439      -273.7585
  10   2.0000     -10.060363      -273.7564
  11   2.0000     -10.058539      -273.7068
  12   2.0000     -10.056863      -273.6612
  13   2.0000     -10.050677      -273.4928
  14   2.0000     -10.050045      -273.4756
  15   2.0000     -10.049820      -273.4695
  16   2.0000     -10.048401      -273.4309
  17   2.0000     -10.048220      -273.4260
  18   2.0000     -10.046232      -273.3719
  19   2.0000     -10.042384      -273.2672
  20   2.0000      -1.016302       -27.6550
  21   2.0000      -1.011691       -27.5295
  22   2.0000      -0.992883       -27.0177
  23   2.0000      -0.925882       -25.1945
  24   2.0000      -0.851439       -23.1688
  25   2.0000      -0.833326       -22.6759
  26   2.0000      -0.773361       -21.0442
  27   2.0000      -0.745677       -20.2909
  28   2.0000      -0.737289       -20.0627
  29   2.0000      -0.730546       -19.8792
  30   2.0000      -0.692903       -18.8549
  31   2.0000      -0.651867       -17.7382
  32   2.0000      -0.627282       -17.0692
  33   2.0000      -0.613910       -16.7053
  34   2.0000      -0.588705       -16.0195
  35   2.0000      -0.569638       -15.5006
  36   2.0000      -0.552438       -15.0326
  37   2.0000      -0.519721       -14.1423
  38   2.0000      -0.518210       -14.1012
  39   2.0000      -0.487100       -13.2547
  40   2.0000      -0.482965       -13.1421
  41   2.0000      -0.462714       -12.5911
  42   2.0000      -0.453761       -12.3475
  43   2.0000      -0.450030       -12.2459
  44   2.0000      -0.443587       -12.0706
  45   2.0000      -0.430707       -11.7201
  46   2.0000      -0.421652       -11.4737
  47   2.0000      -0.420198       -11.4342
  48   2.0000      -0.414752       -11.2860
  49   2.0000      -0.406390       -11.0584
  50   2.0000      -0.398825       -10.8526
  51   2.0000      -0.387937       -10.5563
  52   2.0000      -0.387443       -10.5429
  53   2.0000      -0.377350       -10.2682
  54   2.0000      -0.372831       -10.1452
  55   2.0000      -0.355001        -9.6601
  56   2.0000      -0.348574        -9.4852
  57   2.0000      -0.344967        -9.3870
  58   2.0000      -0.335635        -9.1331
  59   2.0000      -0.329511        -8.9664
  60   2.0000      -0.322423        -8.7736
  61   2.0000      -0.307180        -8.3588
  62   2.0000      -0.289479        -7.8771
  63   2.0000      -0.264941        -7.2094
  64   2.0000      -0.252119        -6.8605
  65   2.0000      -0.251212        -6.8358
  66   2.0000      -0.246114        -6.6971
  67   2.0000      -0.244827        -6.6621
  68   2.0000      -0.231611        -6.3024
  69   2.0000      -0.196599        -5.3497
  70   0.0000      -0.134187        -3.6514
  71   0.0000      -0.080379        -2.1872
  72   0.0000      -0.048905        -1.3308
  73   0.0000      -0.027850        -0.7578
  74   0.0000       0.024531         0.6675

MULLIKEN ATOMIC CHARGES
-----------------------
   0 C :   -0.169498
   1 C :   -0.158672
   2 C :   -0.240444
   3 C :    0.200258
   4 C :    0.139114
   5 C :   -0.227280
   6 C :    0.077202
   7 O :   -0.440193
   8 C :    0.186113
   9 C :   -0.256976
  10 C :   -0.187985
  11 C :   -0.254927
  12 C :    0.268301
  13 C :   -0.144258
  14 C :    0.032951
  15 O :   -0.507215
  16 N :   -0.085930
  17 C :   -0.229932
  18 C :   -0.189252
  19 O :   -0.502353
  20 H :    0.185364
  21 H :    0.185559
  22 H :    0.197421
  23 H :    0.196005
  24 H :    0.197041
  25 H :    0.184085
  26 H :    0.183175
  27 H :    0.355370
  28 H :    0.173297
  29 H :    0.173892
  30 H :    0.153743
  31 H :    0.154368
  32 H :    0.351655
Sum of atomic charges:   -0.0000000

LOEWDIN ATOMIC CHARGES
----------------------
   0 C :   -0.138915
   1 C :   -0.131972
   2 C :   -0.108140
   3 C :   -0.027536
   4 C :   -0.042036
   5 C :   -0.101678
   6 C :    0.277171
   7 O :   -0.547866
   8 C :   -0.031683
   9 C :   -0.126879
  10 C :   -0.123128
  11 C :   -0.119891
  12 C :    0.201319
  13 C :   -0.038785
  14 C :    0.271212
  15 O :   -0.581143
  16 N :   -0.672144
  17 C :   -0.004542
  18 C :    0.048723
  19 O :   -0.646186
  20 H :    0.184329
  21 H :    0.184539
  22 H :    0.196706
  23 H :    0.195099
  24 H :    0.195785
  25 H :    0.186294
  26 H :    0.193465
  27 H :    0.300731
  28 H :    0.189109
  29 H :    0.189108
  30 H :    0.169695
  31 H :    0.169793
  32 H :    0.289444

  Mayer bond orders larger than 0.100000
B(  0-C ,  1-C ) :   1.3099 B(  0-C ,  5-C ) :   1.3530 B(  0-C , 20-H ) :   0.9604
B(  1-C ,  2-C ) :   1.3395 B(  1-C , 21-H ) :   0.9603 B(  2-C ,  3-C ) :   1.2983
B(  2-C , 15-O ) :   0.1003 B(  2-C , 22-H ) :   0.9722 B(  3-C ,  4-C ) :   1.5100
B(  3-C , 14-C ) :   0.9158 B(  3-C , 15-O ) :  -0.2062 B(  4-C ,  5-C ) :   1.2884
B(  4-C ,  6-C ) :   0.8646 B(  4-C ,  7-O ) :  -0.2232 B(  5-C ,  7-O ) :   0.1042
B(  5-C , 23-H ) :   0.9737 B(  6-C ,  7-O ) :   2.0623 B(  6-C ,  8-C ) :   0.8742
B(  7-O ,  8-C ) :  -0.2173 B(  7-O ,  9-C ) :   0.1214 B(  8-C ,  9-C ) :   1.3284
B(  8-C , 13-C ) :   1.2648 B(  9-C , 10-C ) :   1.2274 B(  9-C , 24-H ) :   0.9809
B( 10-C , 11-C ) :   1.3643 B( 10-C , 25-H ) :   0.9763 B( 11-C , 12-C ) :   1.1003
B( 11-C , 26-H ) :   0.9607 B( 12-C , 13-C ) :   1.2327 B( 12-C , 14-C ) :  -0.1071
B( 12-C , 16-N ) :   1.3337 B( 13-C , 14-C ) :   0.9494 B( 13-C , 15-O ) :  -0.1365
B( 14-C , 15-O ) :   1.8695 B( 16-N , 17-C ) :   0.8716 B( 16-N , 27-H ) :   0.8179
B( 17-C , 18-C ) :   0.9419 B( 17-C , 28-H ) :   0.9263 B( 17-C , 29-H ) :   0.9259
B( 18-C , 19-O ) :   0.9509 B( 18-C , 30-H ) :   0.9636 B( 18-C , 31-H ) :   0.9638
B( 19-O , 32-H ) :   0.8703

Dispersion correction           -0.015418469
FINAL SINGLE POINT ENERGY      -897.804935704907

DIPOLE MOMENT
-------------

Method             : SCF
Type of density    : Electron Density
Multiplicity       :   1
Irrep              :   0
Energy             :  -897.8055824208344120 Eh
Relativity type    :
Basis              : AO
                                X                 Y                 Z
Electronic contribution:    -10.994161107       3.867435070       0.142362497
Nuclear contribution   :     12.274745490      -5.230933522      -0.201203506
                        -----------------------------------------
Total Dipole Moment    :      1.280584383      -1.363498453      -0.058841009
                        -----------------------------------------
Magnitude (a.u.)       :      1.871493162
Magnitude (Debye)      :      4.756957577

Rotational constants in cm-1:             0.020769             0.007058             0.005278
Rotational constants in MHz :           622.628590           211.589455           158.238618

                             ****ORCA TERMINATED NORMALLY****
TOTAL RUN TIME: 0 days 0 hours 2 minutes 36 seconds 287 msec
