                         Program Version 6.0.0  -   RELEASE  -
|  1> ! r2scan-3c def2/J RI DEFGRID2 scfconv6 printgap
|  2> %output
|  3>     printlevel normal
|  4> end
|  5> * xyz 0 1
|  6> C -3.9287087316 0.0873189564 -0.2959187663
|  7> C -2.7001201415 -0.2561856464 0.5376324764
|  8> C -1.4078898736 0.0781509983 -0.203116607
|  9> C -0.1740443503 -0.26004863 0.6284231644
| 10> C 1.1069196005 0.0212962761 -0.1104191994
| 11> O 1.195854587 0.3456201972 -1.2749400053
| 12> O 2.1662860684 -0.1352883756 0.6812943057
| 13> C 3.4573736466 0.085661827 0.1067761676
| 14> H -3.9217912652 -0.4687965657 -1.2304275807
| 15> H -4.8385721842 -0.1589716381 0.2452700247
| 16> H -3.9441293554 1.148851166 -0.5314965817
| 17> H -2.7318441067 0.2999600962 1.476536665
| 18> H -2.7125328584 -1.3207235271 0.779471561
| 19> H -1.3903216751 1.1405469961 -0.4544665715
| 20> H -1.3653156567 -0.4749148964 -1.1435102179
| 21> H -0.1710875685 -1.3194776881 0.8947484595
| 22> H -0.1582644738 0.3075764856 1.5601874319
| 23> H 4.1638738852 -0.0312208176 0.9222255666
| 24> H 3.509714211 1.0883489902 -0.3190051849
| 25> H 3.6441247688 -0.644581178 -0.6813759896
| 26> *
| 27>
| 28>                          ****END OF INPUT****

CARTESIAN COORDINATES (ANGSTROEM)
---------------------------------
  C     -3.928709    0.087319   -0.295919
  C     -2.700120   -0.256186    0.537632
  C     -1.407890    0.078151   -0.203117
  C     -0.174044   -0.260049    0.628423
  C      1.106920    0.021296   -0.110419
  O      1.195855    0.345620   -1.274940
  O      2.166286   -0.135288    0.681294
  C      3.457374    0.085662    0.106776
  H     -3.921791   -0.468797   -1.230428
  H     -4.838572   -0.158972    0.245270
  H     -3.944129    1.148851   -0.531497
  H     -2.731844    0.299960    1.476537
  H     -2.712533   -1.320724    0.779472
  H     -1.390322    1.140547   -0.454467
  H     -1.365316   -0.474915   -1.143510
  H     -0.171088   -1.319478    0.894748
  H     -0.158264    0.307576    1.560187
  H      4.163874   -0.031221    0.922226
  H      3.509714    1.088349   -0.319005
  H      3.644125   -0.644581   -0.681376

 Total Charge           Charge          ....    0
 Multiplicity           Mult            ....    1
 Number of Electrons    NEL             ....   64
 Basis Dimension        Dim             ....  222

ORBITAL ENERGIES
----------------

  NO   OCC          E(Eh)            E(eV)
   0   2.0000     -18.997608      -516.9512
   1   2.0000     -18.930920      -515.1365
   2   2.0000     -10.152819      -276.2722
   3   2.0000     -10.086245      -274.4607
   4   2.0000     -10.043239      -273.2904
   5   2.0000     -10.027347      -272.8580
   6   2.0000     -10.027071      -272.8505
   7   2.0000     -10.016271      -272.5566
   8   2.0000      -1.072160       -29.1750
   9   2.0000      -0.977010       -26.5858
  10   2.0000      -0.776022       -21.1166
  11   2.0000      -0.728671       -19.8281
  12   2.0000      -0.685923       -18.6649
  13   2.0000      -0.614807       -16.7298
  14   2.0000      -0.552418       -15.0321
  15   2.0000      -0.527276       -14.3479
  16   2.0000      -0.466905       -12.7051
  17   2.0000      -0.465004       -12.6534
  18   2.0000      -0.440644       -11.9905
  19   2.0000      -0.438585       -11.9345
  20   2.0000      -0.400800       -10.9063
  21   2.0000      -0.397382       -10.8133
  22   2.0000      -0.387653       -10.5486
  23   2.0000      -0.354847        -9.6559
  24   2.0000      -0.351385        -9.5617
  25   2.0000      -0.324808        -8.8385
  26   2.0000      -0.322494        -8.7755
  27   2.0000      -0.308204        -8.3867
  28   2.0000      -0.299637        -8.1535
  29   2.0000      -0.297883        -8.1058
  30   2.0000      -0.273723        -7.4484
  31   2.0000      -0.238034        -6.4772
  32   0.0000      -0.013863        -0.3772
  33   0.0000       0.068855         1.8736
  34   0.0000       0.087637         2.3847
  35   0.0000       0.103176         2.8076
  36   0.0000       0.118133         3.2146

MULLIKEN ATOMIC CHARGES
-----------------------
   0 C :   -0.466646
   1 C :   -0.221977
   2 C :   -0.285287
   3 C :   -0.279485
   4 C :    0.350810
   5 O :   -0.418662
   6 O :   -0.183156
   7 C :   -0.295690
   8 H :    0.143345
   9 H :    0.146991
  10 H :    0.142718
  11 H :    0.133294
  12 H :    0.134115
  13 H :    0.146636
  14 H :    0.155278
  15 H :    0.163194
  16 H :    0.162706
  17 H :    0.150674
  18 H :    0.162628
  19 H :    0.158515
Sum of atomic charges:    0.0000000

LOEWDIN ATOMIC CHARGES
----------------------
   0 C :   -0.422956
   1 C :   -0.315008
   2 C :   -0.290198
   3 C :   -0.230294
   4 C :    0.358467
   5 O :   -0.425659
   6 O :   -0.604814
   7 C :   -0.045471
   8 H :    0.150914
   9 H :    0.150047
  10 H :    0.150630
  11 H :    0.150812
  12 H :    0.150879
  13 H :    0.162966
  14 H :    0.166624
  15 H :    0.182895
  16 H :    0.181803
  17 H :    0.175921
  18 H :    0.177344
  19 H :    0.175098

  Mayer bond orders larger than 0.100000
B(  0-C ,  1-C ) :   0.9012 B(  0-C ,  8-H ) :   0.9826 B(  0-C ,  9-H ) :   0.9759
B(  0-C , 10-H ) :   0.9824 B(  1-C ,  2-C ) :   0.9032 B(  1-C , 11-H ) :   0.9696
B(  1-C , 12-H ) :   0.9747 B(  2-C ,  3-C ) :   0.9551 B(  2-C , 13-H ) :   0.9705
B(  2-C , 14-H ) :   0.9704 B(  3-C ,  4-C ) :   0.9956 B(  3-C , 15-H ) :   0.9419
B(  3-C , 16-H ) :   0.9553 B(  4-C ,  5-O ) :   1.8280 B(  4-C ,  6-O ) :   1.0780
B(  6-O ,  7-C ) :   0.8486 B(  7-C , 17-H ) :   0.9700 B(  7-C , 18-H ) :   0.9643
B(  7-C , 19-H ) :   0.9622

Dispersion correction           -0.004854870
FINAL SINGLE POINT ENERGY      -386.232009356378

DIPOLE MOMENT
-------------

Method             : SCF
Type of density    : Electron Density
Multiplicity       :   1
Irrep              :   0
Energy             :  -386.2390449307823701 Eh
Relativity type    :
Basis              : AO
                                X                 Y                 Z
Electronic contribution:      9.418076346       0.221906977      -0.742146708
Nuclear contribution   :     -9.253143837      -0.403485029       1.415482210
                        -----------------------------------------
Total Dipole Moment    :      0.164932509      -0.181578052       0.673335502
                        -----------------------------------------
Magnitude (a.u.)       :      0.716626835
Magnitude (Debye)      :      1.821520655

Rotational constants in cm-1:             0.252787             0.024842             0.023125
Rotational constants in MHz :          7578.372097           744.749389           693.275303

                             ****ORCA TERMINATED NORMALLY****
TOTAL RUN TIME: 0 days 0 hours 0 minutes 25 seconds 55 msec
