                         Program Version 6.0.0  -   RELEASE  -
|  1> ! r2scan-3c def2/J RI DEFGRID2 scfconv6 printgap
|  2> %output
|  3>     printlevel normal
|  4> end
|  5> %cpcm
|  6>     smd true
|  7>     smdsolvent "water"
|  8> end
|  9> * xyz 0 1
| 10> C -3.9287087316 0.0873189564 -0.2959187663
| 11> C -2.7001201415 -0.2561856464 0.5376324764
| 12> C -1.4078898736 0.0781509983 -0.203116607
| 13> C -0.1740443503 -0.26004863 0.6284231644
| 14> C 1.1069196005 0.0212962761 -0.1104191994
| 15> O 1.195854587 0.3456201972 -1.2749400053
| 16> O 2.1662860684 -0.1352883756 0.6812943057
| 17> C 3.4573736466 0.085661827 0.1067761676
| 18> H -3.9217912652 -0.4687965657 -1.2304275807
| 19> H -4.8385721842 -0.1589716381 0.2452700247
| 20> H -3.9441293554 1.148851166 -0.5314965817
| 21> H -2.7318441067 0.2999600962 1.476536665
| 22> H -2.7125328584 -1.3207235271 0.779471561
| 23> H -1.3903216751 1.1405469961 -0.4544665715
| 24> H -1.3653156567 -0.4749148964 -1.1435102179
| 25> H -0.1710875685 -1.3194776881 0.8947484595
| 26> H -0.1582644738 0.3075764856 1.5601874319
| 27> H 4.1638738852 -0.0312208176 0.9222255666
| 28> H 3.509714211 1.0883489902 -0.3190051849
| 29> H 3.6441247688 -0.644581178 -0.6813759896
| 30> *
| 31>
| 32>                          ****END OF INPUT****

CARTESIAN COORDINATES (ANGSTROEM)
---------------------------------
  C     -3.928709    0.087319   -0.295919
  C     -2.700120   -0.256186    0.537632
  C     -1.407890    0.078151   -0.203117
  C     -0.174044   -0.260049    0.628423
  C      1.106920    0.021296   -0.110419
  O      1.195855    0.345620   -1.274940
  O      2.166286   -0.135288    0.681294
  C      3.457374    0.085662    0.106776
  H     -3.921791   -0.468797   -1.230428
  H     -4.838572   -0.158972    0.245270
  H     -3.944129    1.148851   -0.531497
  H     -2.731844    0.299960    1.476537
  H     -2.712533   -1.320724    0.779472
  H     -1.390322    1.140547   -0.454467
  H     -1.365316   -0.474915   -1.143510
  H     -0.171088   -1.319478    0.894748
  H     -0.158264    0.307576    1.560187
  H      4.163874   -0.031221    0.922226
  H      3.509714    1.088349   -0.319005
  H      3.644125   -0.644581   -0.681376

 Total Charge           Charge          ....    0
 Multiplicity           Mult            ....    1
 Number of Electrons    NEL             ....   64
 Basis Dimension        Dim             ....  222

ORBITAL ENERGIES
----------------

  NO   OCC          E(Eh)            E(eV)
   0   2.0000     -19.002698      -517.0897
   1   2.0000     -18.945681      -515.5382
   2   2.0000     -10.162402      -276.5330
   3   2.0000     -10.076178      -274.1867
   4   2.0000     -10.036118      -273.0967
   5   2.0000     -10.021575      -272.7009
   6   2.0000     -10.018126      -272.6071
   7   2.0000     -10.008093      -272.3341
   8   2.0000      -1.078862       -29.3573
   9   2.0000      -0.989573       -26.9276
  10   2.0000      -0.769953       -20.9515
  11   2.0000      -0.723506       -19.6876
  12   2.0000      -0.679691       -18.4953
  13   2.0000      -0.608187       -16.5496
  14   2.0000      -0.545858       -14.8535
  15   2.0000      -0.525537       -14.3006
  16   2.0000      -0.468135       -12.7386
  17   2.0000      -0.463116       -12.6020
  18   2.0000      -0.451857       -12.2957
  19   2.0000      -0.432272       -11.7627
  20   2.0000      -0.395508       -10.7623
  21   2.0000      -0.392190       -10.6720
  22   2.0000      -0.382042       -10.3959
  23   2.0000      -0.353548        -9.6205
  24   2.0000      -0.346662        -9.4331
  25   2.0000      -0.325992        -8.8707
  26   2.0000      -0.317537        -8.6406
  27   2.0000      -0.301101        -8.1934
  28   2.0000      -0.294147        -8.0041
  29   2.0000      -0.290497        -7.9048
  30   2.0000      -0.278671        -7.5830
  31   2.0000      -0.253860        -6.9079
  32   0.0000      -0.021056        -0.5730
  33   0.0000       0.073590         2.0025
  34   0.0000       0.095192         2.5903
  35   0.0000       0.112131         3.0512
  36   0.0000       0.129225         3.5164

MULLIKEN ATOMIC CHARGES
-----------------------
   0 C :   -0.510453
   1 C :   -0.242062
   2 C :   -0.307575
   3 C :   -0.285178
   4 C :    0.393269
   5 O :   -0.502864
   6 O :   -0.200195
   7 C :   -0.330647
   8 H :    0.153608
   9 H :    0.157675
  10 H :    0.153575
  11 H :    0.147391
  12 H :    0.148242
  13 H :    0.156774
  14 H :    0.156100
  15 H :    0.192284
  16 H :    0.187113
  17 H :    0.178344
  18 H :    0.176851
  19 H :    0.177749
Sum of atomic charges:    0.0000000

LOEWDIN ATOMIC CHARGES
----------------------
   0 C :   -0.431957
   1 C :   -0.313678
   2 C :   -0.293921
   3 C :   -0.227429
   4 C :    0.370694
   5 O :   -0.486421
   6 O :   -0.608076
   7 C :   -0.043488
   8 H :    0.152661
   9 H :    0.152810
  10 H :    0.152617
  11 H :    0.155258
  12 H :    0.155235
  13 H :    0.163080
  14 H :    0.164176
  15 H :    0.194657
  16 H :    0.192381
  17 H :    0.188011
  18 H :    0.182076
  19 H :    0.181314

  Mayer bond orders larger than 0.100000
B(  0-C ,  1-C ) :   0.8860 B(  0-C ,  8-H ) :   0.9812 B(  0-C ,  9-H ) :   0.9728
B(  0-C , 10-H ) :   0.9808 B(  1-C ,  2-C ) :   0.9117 B(  1-C , 11-H ) :   0.9700
B(  1-C , 12-H ) :   0.9748 B(  2-C ,  3-C ) :   0.9370 B(  2-C , 13-H ) :   0.9705
B(  2-C , 14-H ) :   0.9698 B(  3-C ,  4-C ) :   1.0040 B(  3-C , 15-H ) :   0.9282
B(  3-C , 16-H ) :   0.9421 B(  4-C ,  5-O ) :   1.7677 B(  4-C ,  6-O ) :   1.1006
B(  6-O ,  7-C ) :   0.8287 B(  7-C , 17-H ) :   0.9597 B(  7-C , 18-H ) :   0.9590
B(  7-C , 19-H ) :   0.9568

Dispersion correction           -0.004854870
FINAL SINGLE POINT ENERGY      -386.236914909514

DIPOLE MOMENT
-------------

Method             : SCF
Type of density    : Electron Density
Multiplicity       :   1
Irrep              :   0
Energy             :  -386.2439504839185247 Eh
Relativity type    :
Basis              : AO
                                X                 Y                 Z
Electronic contribution:      9.472005473       0.114810257      -0.379220919
Nuclear contribution   :     -9.253143837      -0.403485029       1.415482210
                        -----------------------------------------
Total Dipole Moment    :      0.218861636      -0.288674772       1.036261291
                        -----------------------------------------
Magnitude (a.u.)       :      1.097757260
Magnitude (Debye)      :      2.790277209

Rotational constants in cm-1:             0.252787             0.024842             0.023125
Rotational constants in MHz :          7578.372097           744.749389           693.275303

                             ****ORCA TERMINATED NORMALLY****
TOTAL RUN TIME: 0 days 0 hours 0 minutes 32 seconds 488 msec
