                         Program Version 6.0.0  -   RELEASE  -
|  1> ! pbe def2-sv(p) def2/J RI DEFGRID1 loosescf d4 GCP(DFT/SV(P)) printgap
|  2> %output
|  3>     printlevel normal
|  4> end
|  5> * xyz 0 1
|  6> C -2.5959908879 -1.2660629508 -0.0163209456
|  7> C -2.5218945082 0.2560010669 -0.0079514782
|  8> C -1.2487576261 0.7548839786 0.6837355808
|  9> C -0.0264248521 0.3795591632 -0.1143871182
| 10> O 0.1507011483 0.6595202817 -1.2818500318
| 11> O 0.8387658054 -0.3135910023 0.6155532287
| 12> C 2.0737630371 -0.7303623785 0.0097053874
| 13> C 3.1467127595 0.3358104434 0.1688223634
| 14> H -3.5163099332 -1.5979667958 -0.48930544
| 15> H -1.7569568589 -1.6846705716 -0.5692197971
| 16> H -2.5671171823 -1.6556861458 0.9984200567
| 17> H -3.3882758905 0.662440231 0.5143329826
| 18> H -2.5309125627 0.6304082196 -1.0334054776
| 19> H -1.1555222463 0.3334248762 1.683768264
| 20> H -1.2750613101 1.8438527904 0.7487817177
| 21> H 2.3439393944 -1.6469524813 0.5350678523
| 22> H 1.8903098721 -0.9382083213 -1.0489744416
| 23> H 3.2800900942 0.5777953343 1.219697014
| 24> H 4.0832154684 -0.0328867239 -0.2366624408
| 25> H 2.8594191608 1.2367550656 -0.3687906422
| 26> *
| 27>
| 28>                          ****END OF INPUT****

CARTESIAN COORDINATES (ANGSTROEM)
---------------------------------
  C     -2.595991   -1.266063   -0.016321
  C     -2.521895    0.256001   -0.007951
  C     -1.248758    0.754884    0.683736
  C     -0.026425    0.379559   -0.114387
  O      0.150701    0.659520   -1.281850
  O      0.838766   -0.313591    0.615553
  C      2.073763   -0.730362    0.009705
  C      3.146713    0.335810    0.168822
  H     -3.516310   -1.597967   -0.489305
  H     -1.756957   -1.684671   -0.569220
  H     -2.567117   -1.655686    0.998420
  H     -3.388276    0.662440    0.514333
  H     -2.530913    0.630408   -1.033405
  H     -1.155522    0.333425    1.683768
  H     -1.275061    1.843853    0.748782
  H      2.343939   -1.646952    0.535068
  H      1.890310   -0.938208   -1.048974
  H      3.280090    0.577795    1.219697
  H      4.083215   -0.032887   -0.236662
  H      2.859419    1.236755   -0.368791

 Total Charge           Charge          ....    0
 Multiplicity           Mult            ....    1
 Number of Electrons    NEL             ....   64
 Basis Dimension        Dim             ....  136

ORBITAL ENERGIES
----------------

  NO   OCC          E(Eh)            E(eV)
   0   2.0000     -18.797797      -511.5141
   1   2.0000     -18.730909      -509.6939
   2   2.0000     -10.004518      -272.2368
   3   2.0000      -9.945982      -270.6439
   4   2.0000      -9.895638      -269.2740
   5   2.0000      -9.890815      -269.1428
   6   2.0000      -9.887203      -269.0445
   7   2.0000      -9.876700      -268.7587
   8   2.0000      -1.003817       -27.3153
   9   2.0000      -0.908305       -24.7162
  10   2.0000      -0.727174       -19.7874
  11   2.0000      -0.696465       -18.9518
  12   2.0000      -0.636520       -17.3206
  13   2.0000      -0.590626       -16.0717
  14   2.0000      -0.531732       -14.4692
  15   2.0000      -0.493334       -13.4243
  16   2.0000      -0.452807       -12.3215
  17   2.0000      -0.432372       -11.7655
  18   2.0000      -0.422582       -11.4991
  19   2.0000      -0.396623       -10.7927
  20   2.0000      -0.391793       -10.6612
  21   2.0000      -0.374680       -10.1955
  22   2.0000      -0.360881        -9.8201
  23   2.0000      -0.350451        -9.5363
  24   2.0000      -0.338337        -9.2066
  25   2.0000      -0.329882        -8.9766
  26   2.0000      -0.304872        -8.2960
  27   2.0000      -0.298135        -8.1127
  28   2.0000      -0.296708        -8.0738
  29   2.0000      -0.287074        -7.8117
  30   2.0000      -0.255267        -6.9462
  31   2.0000      -0.217828        -5.9274
  32   0.0000      -0.020292        -0.5522
  33   0.0000       0.041534         1.1302
  34   0.0000       0.055117         1.4998
  35   0.0000       0.075351         2.0504
  36   0.0000       0.080873         2.2007

MULLIKEN ATOMIC CHARGES
-----------------------
   0 C :   -0.288616
   1 C :   -0.202608
   2 C :   -0.120346
   3 C :    0.091168
   4 O :   -0.213173
   5 O :   -0.234893
   6 C :   -0.016754
   7 C :   -0.301839
   8 H :    0.107735
   9 H :    0.116251
  10 H :    0.099228
  11 H :    0.091682
  12 H :    0.108661
  13 H :    0.092126
  14 H :    0.112053
  15 H :    0.101283
  16 H :    0.107984
  17 H :    0.113059
  18 H :    0.111993
  19 H :    0.125004
Sum of atomic charges:    0.0000000

LOEWDIN ATOMIC CHARGES
----------------------
   0 C :   -0.342403
   1 C :   -0.227055
   2 C :   -0.246679
   3 C :    0.036865
   4 O :   -0.175117
   5 O :   -0.065737
   6 C :   -0.114458
   7 C :   -0.355248
   8 H :    0.121552
   9 H :    0.120488
  10 H :    0.117521
  11 H :    0.117927
  12 H :    0.124717
  13 H :    0.126212
  14 H :    0.141444
  15 H :    0.116725
  16 H :    0.118969
  17 H :    0.124208
  18 H :    0.130023
  19 H :    0.130044

  Mayer bond orders larger than 0.100000
B(  0-C ,  1-C ) :   1.1541 B(  0-C ,  8-H ) :   0.9520 B(  0-C ,  9-H ) :   0.9494
B(  0-C , 10-H ) :   0.9537 B(  1-C ,  2-C ) :   1.1114 B(  1-C , 11-H ) :   0.9283
B(  1-C , 12-H ) :   0.9201 B(  2-C ,  3-C ) :   1.0180 B(  2-C , 13-H ) :   0.9103
B(  2-C , 14-H ) :   0.8936 B(  3-C ,  4-O ) :   2.0336 B(  3-C ,  5-O ) :   1.2173
B(  5-O ,  6-C ) :   0.9231 B(  6-C ,  7-C ) :   1.1733 B(  6-C , 15-H ) :   0.9369
B(  6-C , 16-H ) :   0.9121 B(  7-C , 17-H ) :   0.9494 B(  7-C , 18-H ) :   0.9447
B(  7-C , 19-H ) :   0.9469

Dispersion correction           -0.015246783
FINAL SINGLE POINT ENERGY      -385.458502104215

DIPOLE MOMENT
-------------

Method             : SCF
Type of density    : Electron Density
Multiplicity       :   1
Irrep              :   0
Energy             :  -385.5334451691447839 Eh
Relativity type    :
Basis              : AO
                                X                 Y                 Z
Electronic contribution:      1.811648426       1.876674138      -1.244610130
Nuclear contribution   :     -1.611341649      -2.126098654       1.823025371
                        -----------------------------------------
Total Dipole Moment    :      0.200306777      -0.249424517       0.578415240
                        -----------------------------------------
Magnitude (a.u.)       :      0.660983801
Magnitude (Debye)      :      1.680087302

Rotational constants in cm-1:             0.153209             0.034289             0.032849
Rotational constants in MHz :          4593.094184          1027.958043           984.777646

                             ****ORCA TERMINATED NORMALLY****
TOTAL RUN TIME: 0 days 0 hours 0 minutes 10 seconds 789 msec
