                         Program Version 6.0.0  -   RELEASE  -
|  1> ! r2scan-3c def2/J RI DEFGRID2 scfconv6 printgap
|  2> %output
|  3>     printlevel normal
|  4> end
|  5> * xyz 0 1
|  6> C -2.2910582265 -1.2469930264 0.5839651384
|  7> C -1.9737996672 -0.3137267452 -0.5794268554
|  8> C -1.5659912202 1.0922545211 -0.1360772839
|  9> C -0.2971332192 1.113888291 0.7270094255
| 10> C 0.8582445767 0.5075101072 -0.0234568448
| 11> O 1.347021141 0.9583717584 -1.0384398756
| 12> O 1.2909151945 -0.6084910351 0.5547572758
| 13> C 2.3822656099 -1.2951448208 -0.0622721302
| 14> H -2.6896435836 -2.1868256598 0.2101971369
| 15> H -1.397436804 -1.4662692827 1.1622618971
| 16> H -3.0319374708 -0.7958922316 1.2396612765
| 17> H -1.1744377374 -0.7456544202 -1.1874278274
| 18> H -2.8559248526 -0.2251248996 -1.2171393727
| 19> H -2.3787833234 1.5432315769 0.4344770962
| 20> H -1.3889693196 1.7028054103 -1.0238670912
| 21> H -0.4431150776 0.5629337434 1.6535704231
| 22> H -0.0440304331 2.1501320674 0.9540651039
| 23> H 2.629151095 -2.1148846774 0.6047651857
| 24> H 3.2281457099 -0.6176035871 -0.1840848847
| 25> H 2.081984621 -1.6661368974 -1.0430194355
| 26> *
| 27>
| 28>                          ****END OF INPUT****

CARTESIAN COORDINATES (ANGSTROEM)
---------------------------------
  C     -2.291058   -1.246993    0.583965
  C     -1.973800   -0.313727   -0.579427
  C     -1.565991    1.092255   -0.136077
  C     -0.297133    1.113888    0.727009
  C      0.858245    0.507510   -0.023457
  O      1.347021    0.958372   -1.038440
  O      1.290915   -0.608491    0.554757
  C      2.382266   -1.295145   -0.062272
  H     -2.689644   -2.186826    0.210197
  H     -1.397437   -1.466269    1.162262
  H     -3.031937   -0.795892    1.239661
  H     -1.174438   -0.745654   -1.187428
  H     -2.855925   -0.225125   -1.217139
  H     -2.378783    1.543232    0.434477
  H     -1.388969    1.702805   -1.023867
  H     -0.443115    0.562934    1.653570
  H     -0.044030    2.150132    0.954065
  H      2.629151   -2.114885    0.604765
  H      3.228146   -0.617604   -0.184085
  H      2.081985   -1.666137   -1.043019

 Total Charge           Charge          ....    0
 Multiplicity           Mult            ....    1
 Number of Electrons    NEL             ....   64
 Basis Dimension        Dim             ....  222

ORBITAL ENERGIES
----------------

  NO   OCC          E(Eh)            E(eV)
   0   2.0000     -19.000980      -517.0429
   1   2.0000     -18.929506      -515.0980
   2   2.0000     -10.152530      -276.2644
   3   2.0000     -10.087359      -274.4910
   4   2.0000     -10.041086      -273.2318
   5   2.0000     -10.034539      -273.0537
   6   2.0000     -10.028180      -272.8807
   7   2.0000     -10.017220      -272.5824
   8   2.0000      -1.074300       -29.2332
   9   2.0000      -0.976521       -26.5725
  10   2.0000      -0.779497       -21.2112
  11   2.0000      -0.724353       -19.7106
  12   2.0000      -0.686218       -18.6729
  13   2.0000      -0.623559       -16.9679
  14   2.0000      -0.556392       -15.1402
  15   2.0000      -0.523973       -14.2580
  16   2.0000      -0.469739       -12.7822
  17   2.0000      -0.458722       -12.4825
  18   2.0000      -0.447921       -12.1885
  19   2.0000      -0.427583       -11.6351
  20   2.0000      -0.419832       -11.4242
  21   2.0000      -0.390084       -10.6147
  22   2.0000      -0.375681       -10.2228
  23   2.0000      -0.362301        -9.8587
  24   2.0000      -0.356090        -9.6897
  25   2.0000      -0.340578        -9.2676
  26   2.0000      -0.321048        -8.7362
  27   2.0000      -0.304118        -8.2755
  28   2.0000      -0.298346        -8.1184
  29   2.0000      -0.297176        -8.0866
  30   2.0000      -0.275100        -7.4859
  31   2.0000      -0.236763        -6.4427
  32   0.0000      -0.017675        -0.4810
  33   0.0000       0.061845         1.6829
  34   0.0000       0.089557         2.4370
  35   0.0000       0.106005         2.8845
  36   0.0000       0.117411         3.1949

MULLIKEN ATOMIC CHARGES
-----------------------
   0 C :   -0.503893
   1 C :   -0.212171
   2 C :   -0.285857
   3 C :   -0.326068
   4 C :    0.336501
   5 O :   -0.410624
   6 O :   -0.177068
   7 C :   -0.296026
   8 H :    0.146901
   9 H :    0.160864
  10 H :    0.146233
  11 H :    0.147082
  12 H :    0.145378
  13 H :    0.151667
  14 H :    0.165905
  15 H :    0.171035
  16 H :    0.165838
  17 H :    0.150748
  18 H :    0.164448
  19 H :    0.159108
Sum of atomic charges:   -0.0000000

LOEWDIN ATOMIC CHARGES
----------------------
   0 C :   -0.425471
   1 C :   -0.311313
   2 C :   -0.285822
   3 C :   -0.231129
   4 C :    0.348097
   5 O :   -0.423910
   6 O :   -0.607151
   7 C :   -0.045560
   8 H :    0.152317
   9 H :    0.153983
  10 H :    0.150113
  11 H :    0.157712
  12 H :    0.154365
  13 H :    0.156645
  14 H :    0.168025
  15 H :    0.177191
  16 H :    0.181416
  17 H :    0.176193
  18 H :    0.178812
  19 H :    0.175488

  Mayer bond orders larger than 0.100000
B(  0-C ,  1-C ) :   0.8895 B(  0-C ,  8-H ) :   0.9693 B(  0-C ,  9-H ) :   0.9749
B(  0-C , 10-H ) :   0.9823 B(  1-C ,  2-C ) :   0.9016 B(  1-C , 11-H ) :   0.9662
B(  1-C , 12-H ) :   0.9596 B(  2-C ,  3-C ) :   0.8750 B(  2-C , 13-H ) :   0.9825
B(  2-C , 14-H ) :   0.9717 B(  3-C ,  4-C ) :   0.9231 B(  3-C , 15-H ) :   1.0058
B(  3-C , 16-H ) :   0.9394 B(  4-C ,  5-O ) :   1.8277 B(  4-C ,  6-O ) :   1.0577
B(  6-O ,  7-C ) :   0.8533 B(  7-C , 17-H ) :   0.9692 B(  7-C , 18-H ) :   0.9628
B(  7-C , 19-H ) :   0.9611

Dispersion correction           -0.005437558
FINAL SINGLE POINT ENERGY      -386.231184336814

DIPOLE MOMENT
-------------

Method             : SCF
Type of density    : Electron Density
Multiplicity       :   1
Irrep              :   0
Energy             :  -386.2377796573239834 Eh
Relativity type    :
Basis              : AO
                                X                 Y                 Z
Electronic contribution:      6.777716040       3.111899174      -0.975215390
Nuclear contribution   :     -6.964295997      -3.615468198       1.497140187
                        -----------------------------------------
Total Dipole Moment    :     -0.186579957      -0.503569024       0.521924797
                        -----------------------------------------
Magnitude (a.u.)       :      0.748865366
Magnitude (Debye)      :      1.903464490

Rotational constants in cm-1:             0.101126             0.044869             0.036955
Rotational constants in MHz :          3031.675194          1345.126647          1107.895511

                             ****ORCA TERMINATED NORMALLY****
TOTAL RUN TIME: 0 days 0 hours 0 minutes 27 seconds 12 msec
