                         Program Version 6.0.0  -   RELEASE  -
|  1> ! r2scan-3c def2/J RI DEFGRID2 scfconv6 printgap
|  2> %output
|  3>     printlevel normal
|  4> end
|  5> %cpcm
|  6>     smd true
|  7>     smdsolvent "water"
|  8> end
|  9> * xyz 0 1
| 10> C -2.2910582265 -1.2469930264 0.5839651384
| 11> C -1.9737996672 -0.3137267452 -0.5794268554
| 12> C -1.5659912202 1.0922545211 -0.1360772839
| 13> C -0.2971332192 1.113888291 0.7270094255
| 14> C 0.8582445767 0.5075101072 -0.0234568448
| 15> O 1.347021141 0.9583717584 -1.0384398756
| 16> O 1.2909151945 -0.6084910351 0.5547572758
| 17> C 2.3822656099 -1.2951448208 -0.0622721302
| 18> H -2.6896435836 -2.1868256598 0.2101971369
| 19> H -1.397436804 -1.4662692827 1.1622618971
| 20> H -3.0319374708 -0.7958922316 1.2396612765
| 21> H -1.1744377374 -0.7456544202 -1.1874278274
| 22> H -2.8559248526 -0.2251248996 -1.2171393727
| 23> H -2.3787833234 1.5432315769 0.4344770962
| 24> H -1.3889693196 1.7028054103 -1.0238670912
| 25> H -0.4431150776 0.5629337434 1.6535704231
| 26> H -0.0440304331 2.1501320674 0.9540651039
| 27> H 2.629151095 -2.1148846774 0.6047651857
| 28> H 3.2281457099 -0.6176035871 -0.1840848847
| 29> H 2.081984621 -1.6661368974 -1.0430194355
| 30> *
| 31>
| 32>                          ****END OF INPUT****

CARTESIAN COORDINATES (ANGSTROEM)
---------------------------------
  C     -2.291058   -1.246993    0.583965
  C     -1.973800   -0.313727   -0.579427
  C     -1.565991    1.092255   -0.136077
  C     -0.297133    1.113888    0.727009
  C      0.858245    0.507510   -0.023457
  O      1.347021    0.958372   -1.038440
  O      1.290915   -0.608491    0.554757
  C      2.382266   -1.295145   -0.062272
  H     -2.689644   -2.186826    0.210197
  H     -1.397437   -1.466269    1.162262
  H     -3.031937   -0.795892    1.239661
  H     -1.174438   -0.745654   -1.187428
  H     -2.855925   -0.225125   -1.217139
  H     -2.378783    1.543232    0.434477
  H     -1.388969    1.702805   -1.023867
  H     -0.443115    0.562934    1.653570
  H     -0.044030    2.150132    0.954065
  H      2.629151   -2.114885    0.604765
  H      3.228146   -0.617604   -0.184085
  H      2.081985   -1.666137   -1.043019

 Total Charge           Charge          ....    0
 Multiplicity           Mult            ....    1
 Number of Electrons    NEL             ....   64
 Basis Dimension        Dim             ....  222

ORBITAL ENERGIES
----------------

  NO   OCC          E(Eh)            E(eV)
   0   2.0000     -19.005514      -517.1663
   1   2.0000     -18.944576      -515.5081
   2   2.0000     -10.162289      -276.5299
   3   2.0000     -10.076420      -274.1933
   4   2.0000     -10.035109      -273.0692
   5   2.0000     -10.027265      -272.8558
   6   2.0000     -10.019978      -272.6575
   7   2.0000     -10.008353      -272.3411
   8   2.0000      -1.080405       -29.3993
   9   2.0000      -0.989405       -26.9231
  10   2.0000      -0.773701       -21.0535
  11   2.0000      -0.719135       -19.5686
  12   2.0000      -0.679321       -18.4853
  13   2.0000      -0.616418       -16.7736
  14   2.0000      -0.550304       -14.9745
  15   2.0000      -0.521192       -14.1824
  16   2.0000      -0.469866       -12.7857
  17   2.0000      -0.461303       -12.5527
  18   2.0000      -0.450173       -12.2498
  19   2.0000      -0.421394       -11.4667
  20   2.0000      -0.418520       -11.3885
  21   2.0000      -0.386616       -10.5204
  22   2.0000      -0.372420       -10.1341
  23   2.0000      -0.355977        -9.6866
  24   2.0000      -0.348721        -9.4892
  25   2.0000      -0.338165        -9.2019
  26   2.0000      -0.321193        -8.7401
  27   2.0000      -0.297080        -8.0840
  28   2.0000      -0.291399        -7.9294
  29   2.0000      -0.289777        -7.8852
  30   2.0000      -0.281477        -7.6594
  31   2.0000      -0.252528        -6.8716
  32   0.0000      -0.024898        -0.6775
  33   0.0000       0.067064         1.8249
  34   0.0000       0.098326         2.6756
  35   0.0000       0.117042         3.1849
  36   0.0000       0.122315         3.3284

MULLIKEN ATOMIC CHARGES
-----------------------
   0 C :   -0.531505
   1 C :   -0.224217
   2 C :   -0.300415
   3 C :   -0.342040
   4 C :    0.378729
   5 O :   -0.496803
   6 O :   -0.191643
   7 C :   -0.331340
   8 H :    0.157672
   9 H :    0.163095
  10 H :    0.159403
  11 H :    0.152371
  12 H :    0.156198
  13 H :    0.170999
  14 H :    0.165126
  15 H :    0.187050
  16 H :    0.191346
  17 H :    0.178796
  18 H :    0.177800
  19 H :    0.179378
Sum of atomic charges:   -0.0000000

LOEWDIN ATOMIC CHARGES
----------------------
   0 C :   -0.431205
   1 C :   -0.313741
   2 C :   -0.285822
   3 C :   -0.228751
   4 C :    0.358139
   5 O :   -0.485570
   6 O :   -0.607422
   7 C :   -0.043199
   8 H :    0.154727
   9 H :    0.154170
  10 H :    0.154419
  11 H :    0.158048
  12 H :    0.157714
  13 H :    0.164335
  14 H :    0.165644
  15 H :    0.184696
  16 H :    0.190036
  17 H :    0.188433
  18 H :    0.183205
  19 H :    0.182145

  Mayer bond orders larger than 0.100000
B(  0-C ,  1-C ) :   0.8877 B(  0-C ,  8-H ) :   0.9673 B(  0-C ,  9-H ) :   0.9739
B(  0-C , 10-H ) :   0.9785 B(  1-C ,  2-C ) :   0.8939 B(  1-C , 11-H ) :   0.9672
B(  1-C , 12-H ) :   0.9578 B(  2-C ,  3-C ) :   0.8585 B(  2-C , 13-H ) :   0.9760
B(  2-C , 14-H ) :   0.9770 B(  3-C ,  4-C ) :   0.9248 B(  3-C , 15-H ) :   0.9959
B(  3-C , 16-H ) :   0.9344 B(  4-C ,  5-O ) :   1.7597 B(  4-C ,  6-O ) :   1.0826
B(  6-O ,  7-C ) :   0.8336 B(  7-C , 17-H ) :   0.9592 B(  7-C , 18-H ) :   0.9576
B(  7-C , 19-H ) :   0.9555

Dispersion correction           -0.005437558
FINAL SINGLE POINT ENERGY      -386.236231244814

DIPOLE MOMENT
-------------

Method             : SCF
Type of density    : Electron Density
Multiplicity       :   1
Irrep              :   0
Energy             :  -386.2428265653235258 Eh
Relativity type    :
Basis              : AO
                                X                 Y                 Z
Electronic contribution:      6.665708184       2.940005601      -0.699037728
Nuclear contribution   :     -6.964295997      -3.615468198       1.497140187
                        -----------------------------------------
Total Dipole Moment    :     -0.298587813      -0.675462597       0.798102459
                        -----------------------------------------
Magnitude (a.u.)       :      1.087369274
Magnitude (Debye)      :      2.763873046

Rotational constants in cm-1:             0.101126             0.044869             0.036955
Rotational constants in MHz :          3031.675194          1345.126647          1107.895511

                             ****ORCA TERMINATED NORMALLY****
TOTAL RUN TIME: 0 days 0 hours 0 minutes 35 seconds 131 msec
