                         Program Version 6.0.0  -   RELEASE  -
|  1> ! pbe def2-sv(p) def2/J RI DEFGRID1 loosescf d4 GCP(DFT/SV(P)) printgap
|  2> %output
|  3>     printlevel normal
|  4> end
|  5> * xyz 0 1
|  6> C 1.7520573935 0.6699888373 0.4136684011
|  7> C 1.3696847127 -0.3829466201 -0.2842801279
|  8> C -0.0514606537 -0.8210373439 -0.4937832742
|  9> C -1.03174106 -0.1312757993 0.4003023256
| 10> C -2.0173475928 0.6378370061 -0.0221989376
| 11> H 2.7906768484 0.9339281481 0.5175197288
| 12> H 1.0430303065 1.3136238185 0.9071966114
| 13> H 2.1078477013 -1.0028491394 -0.777237741
| 14> H -0.1044165001 -1.8999223824 -0.3146742735
| 15> H -0.3169010879 -0.650647731 -1.5413875566
| 16> H -0.8877958727 -0.303615372 1.4591911656
| 17> H -2.7062262588 1.110324388 0.6571716658
| 18> H -2.1787509325 0.8260639612 -1.0711302904
| 19> *
| 20>
| 21>                          ****END OF INPUT****

CARTESIAN COORDINATES (ANGSTROEM)
---------------------------------
  C      1.752057    0.669989    0.413668
  C      1.369685   -0.382947   -0.284280
  C     -0.051461   -0.821037   -0.493783
  C     -1.031741   -0.131276    0.400302
  C     -2.017348    0.637837   -0.022199
  H      2.790677    0.933928    0.517520
  H      1.043030    1.313624    0.907197
  H      2.107848   -1.002849   -0.777238
  H     -0.104417   -1.899922   -0.314674
  H     -0.316901   -0.650648   -1.541388
  H     -0.887796   -0.303615    1.459191
  H     -2.706226    1.110324    0.657172
  H     -2.178751    0.826064   -1.071130

 Total Charge           Charge          ....    0
 Multiplicity           Mult            ....    1
 Number of Electrons    NEL             ....   38
 Basis Dimension        Dim             ....   86

ORBITAL ENERGIES
----------------

  NO   OCC          E(Eh)            E(eV)
   0   2.0000      -9.895279      -269.2642
   1   2.0000      -9.894161      -269.2338
   2   2.0000      -9.892134      -269.1786
   3   2.0000      -9.877944      -268.7925
   4   2.0000      -9.876283      -268.7473
   5   2.0000      -0.733636       -19.9633
   6   2.0000      -0.674644       -18.3580
   7   2.0000      -0.610015       -16.5993
   8   2.0000      -0.517507       -14.0821
   9   2.0000      -0.476560       -12.9679
  10   2.0000      -0.422279       -11.4908
  11   2.0000      -0.420347       -11.4382
  12   2.0000      -0.387059       -10.5324
  13   2.0000      -0.355673        -9.6784
  14   2.0000      -0.341791        -9.3006
  15   2.0000      -0.313671        -8.5354
  16   2.0000      -0.291920        -7.9436
  17   2.0000      -0.234933        -6.3928
  18   2.0000      -0.226394        -6.1605
  19   0.0000      -0.018790        -0.5113
  20   0.0000      -0.011875        -0.3231
  21   0.0000       0.054763         1.4902
  22   0.0000       0.068586         1.8663
  23   0.0000       0.080955         2.2029

MULLIKEN ATOMIC CHARGES
-----------------------
   0 C :   -0.180334
   1 C :   -0.172713
   2 C :   -0.051769
   3 C :   -0.140024
   4 C :   -0.202548
   5 H :    0.095845
   6 H :    0.102629
   7 H :    0.074095
   8 H :    0.101113
   9 H :    0.099745
  10 H :    0.080782
  11 H :    0.098840
  12 H :    0.094340
Sum of atomic charges:   -0.0000000

LOEWDIN ATOMIC CHARGES
----------------------
   0 C :   -0.258928
   1 C :   -0.135269
   2 C :   -0.219992
   3 C :   -0.129363
   4 C :   -0.252956
   5 H :    0.122204
   6 H :    0.122811
   7 H :    0.119010
   8 H :    0.135423
   9 H :    0.133502
  10 H :    0.122768
  11 H :    0.121483
  12 H :    0.119308

  Mayer bond orders larger than 0.100000
B(  0-C ,  1-C ) :   2.0899 B(  0-C ,  5-H ) :   0.9229 B(  0-C ,  6-H ) :   0.8967
B(  1-C ,  2-C ) :   1.0513 B(  1-C ,  7-H ) :   0.9334 B(  2-C ,  3-C ) :   1.0980
B(  2-C ,  8-H ) :   0.8913 B(  2-C ,  9-H ) :   0.8950 B(  3-C ,  4-C ) :   2.0561
B(  3-C , 10-H ) :   0.9292 B(  4-C , 11-H ) :   0.9255 B(  4-C , 12-H ) :   0.9198

Dispersion correction           -0.008956151
FINAL SINGLE POINT ENERGY      -194.815287446568

DIPOLE MOMENT
-------------

Method             : SCF
Type of density    : Electron Density
Multiplicity       :   1
Irrep              :   0
Energy             :  -194.8542439086840261 Eh
Relativity type    :
Basis              : AO
                                X                 Y                 Z
Electronic contribution:      0.236345078      -0.447342909       0.092440221
Nuclear contribution   :     -0.236922096       0.306693874      -0.153251097
                        -----------------------------------------
Total Dipole Moment    :     -0.000577018      -0.140649035      -0.060810877
                        -----------------------------------------
Magnitude (a.u.)       :      0.153233308
Magnitude (Debye)      :      0.389488116

Rotational constants in cm-1:             0.371532             0.107500             0.091223
Rotational constants in MHz :         11138.254025          3222.782189          2734.806827

                             ****ORCA TERMINATED NORMALLY****
TOTAL RUN TIME: 0 days 0 hours 0 minutes 5 seconds 517 msec
